maquina  isise0
 Entering Gaussian System, Link 0=/usr/local/g16_AVX/g16
 Initial command:
 /usr/local/g16_AVX/l1.exe "/tmp/marioadn/Agua.com_171674/Gau-4986.inp" -scrdir="/tmp/marioadn/Agua.com_171674/"
 Entering Link 1 = /usr/local/g16_AVX/l1.exe PID=      4987.
  
 Copyright (c) 1988-2017, Gaussian, Inc.  All Rights Reserved.
  
 This is part of the Gaussian(R) 16 program.  It is based on
 the Gaussian(R) 09 system (copyright 2009, Gaussian, Inc.),
 the Gaussian(R) 03 system (copyright 2003, Gaussian, Inc.),
 the Gaussian(R) 98 system (copyright 1998, Gaussian, Inc.),
 the Gaussian(R) 94 system (copyright 1995, Gaussian, Inc.),
 the Gaussian 92(TM) system (copyright 1992, Gaussian, Inc.),
 the Gaussian 90(TM) system (copyright 1990, Gaussian, Inc.),
 the Gaussian 88(TM) system (copyright 1988, Gaussian, Inc.),
 the Gaussian 86(TM) system (copyright 1986, Carnegie Mellon
 University), and the Gaussian 82(TM) system (copyright 1983,
 Carnegie Mellon University). Gaussian is a federally registered
 trademark of Gaussian, Inc.
  
 This software contains proprietary and confidential information,
 including trade secrets, belonging to Gaussian, Inc.
  
 This software is provided under written license and may be
 used, copied, transmitted, or stored only in accord with that
 written license.
  
 The following legend is applicable only to US Government
 contracts under FAR:
  
                    RESTRICTED RIGHTS LEGEND
  
 Use, reproduction and disclosure by the US Government is
 subject to restrictions as set forth in subparagraphs (a)
 and (c) of the Commercial Computer Software - Restricted
 Rights clause in FAR 52.227-19.
  
 Gaussian, Inc.
 340 Quinnipiac St., Bldg. 40, Wallingford CT 06492
  
  
 ---------------------------------------------------------------
 Warning -- This program may not be used in any manner that
 competes with the business of Gaussian, Inc. or will provide
 assistance to any competitor of Gaussian, Inc.  The licensee
 of this program is prohibited from giving any competitor of
 Gaussian, Inc. access to this program.  By using this program,
 the user acknowledges that Gaussian, Inc. is engaged in the
 business of creating and licensing software in the field of
 computational chemistry and represents and warrants to the
 licensee that it is not a competitor of Gaussian, Inc. and that
 it will not use this program in any manner prohibited above.
 ---------------------------------------------------------------
  

 Cite this work as:
 Gaussian 16, Revision B.01,
 M. J. Frisch, G. W. Trucks, H. B. Schlegel, G. E. Scuseria, 
 M. A. Robb, J. R. Cheeseman, G. Scalmani, V. Barone, 
 G. A. Petersson, H. Nakatsuji, X. Li, M. Caricato, A. V. Marenich, 
 J. Bloino, B. G. Janesko, R. Gomperts, B. Mennucci, H. P. Hratchian, 
 J. V. Ortiz, A. F. Izmaylov, J. L. Sonnenberg, D. Williams-Young, 
 F. Ding, F. Lipparini, F. Egidi, J. Goings, B. Peng, A. Petrone, 
 T. Henderson, D. Ranasinghe, V. G. Zakrzewski, J. Gao, N. Rega, 
 G. Zheng, W. Liang, M. Hada, M. Ehara, K. Toyota, R. Fukuda, 
 J. Hasegawa, M. Ishida, T. Nakajima, Y. Honda, O. Kitao, H. Nakai, 
 T. Vreven, K. Throssell, J. A. Montgomery, Jr., J. E. Peralta, 
 F. Ogliaro, M. J. Bearpark, J. J. Heyd, E. N. Brothers, K. N. Kudin, 
 V. N. Staroverov, T. A. Keith, R. Kobayashi, J. Normand, 
 K. Raghavachari, A. P. Rendell, J. C. Burant, S. S. Iyengar, 
 J. Tomasi, M. Cossi, J. M. Millam, M. Klene, C. Adamo, R. Cammi, 
 J. W. Ochterski, R. L. Martin, K. Morokuma, O. Farkas, 
 J. B. Foresman, and D. J. Fox, Gaussian, Inc., Wallingford CT, 2016.
 
 ******************************************
 Gaussian 16:  ES64L-G16RevB.01 20-Dec-2017
                 7-Jun-2024 
 ******************************************
 %chk=agua
 %nproc=12
 Will use up to   12 processors via shared memory.
 %mem=1GB
 -------------------
 #p B3LYP/6-31g* opt
 -------------------
 1/18=20,19=15,26=3,38=1/1,3;
 2/9=110,12=2,17=6,18=5,40=1/2;
 3/5=1,6=6,7=1,11=2,25=1,30=1,71=1,74=-5/1,2,3;
 4//1;
 5/5=2,38=5/2;
 6/7=2,8=2,9=2,10=2,28=1/1;
 7//1,2,3,16;
 1/18=20,19=15,26=3/3(2);
 2/9=110/2;
 99//99;
 2/9=110/2;
 3/5=1,6=6,7=1,11=2,25=1,30=1,71=1,74=-5/1,2,3;
 4/5=5,16=3,69=1/1;
 5/5=2,38=5/2;
 7//1,2,3,16;
 1/18=20,19=15,26=3/3(-5);
 2/9=110/2;
 6/7=2,8=2,9=2,10=2,19=2,28=1/1;
 99/9=1/99;
 Leave Link    1 at Fri Jun  7 15:43:00 2024, MaxMem=   134217728 cpu:               0.3 elap:               0.0
 (Enter /usr/local/g16_AVX/l101.exe)
 ----
 Agua
 ----
 Symbolic Z-matrix:
 Charge =  0 Multiplicity = 1
 O
 H                    1     0.9 
 H                    1     0.9      2     107. 
 
 ITRead=  0  0  0
 MicOpt= -1 -1 -1
 NAtoms=      3 NQM=        3 NQMF=       0 NMMI=      0 NMMIF=      0
                NMic=       0 NMicF=      0.
                    Isotopes and Nuclear Properties:
 (Nuclear quadrupole moments (NQMom) in fm**2, nuclear magnetic moments (NMagM)
  in nuclear magnetons)

  Atom         1           2           3
 IAtWgt=          16           1           1
 AtmWgt=  15.9949146   1.0078250   1.0078250
 NucSpn=           0           1           1
 AtZEff=  -0.0000000  -0.0000000  -0.0000000
 NQMom=    0.0000000   0.0000000   0.0000000
 NMagM=    0.0000000   2.7928460   2.7928460
 AtZNuc=   8.0000000   1.0000000   1.0000000
 Leave Link  101 at Fri Jun  7 15:43:01 2024, MaxMem=   134217728 cpu:               0.7 elap:               0.1
 (Enter /usr/local/g16_AVX/l103.exe)

 GradGradGradGradGradGradGradGradGradGradGradGradGradGradGradGradGradGrad
 Berny optimization.
 Initialization pass.
                           ----------------------------
                           !    Initial Parameters    !
                           ! (Angstroms and Degrees)  !
 --------------------------                            --------------------------
 ! Name  Definition              Value          Derivative Info.                !
 --------------------------------------------------------------------------------
 ! R1    R(1,2)                  0.9            estimate D2E/DX2                !
 ! R2    R(1,3)                  0.9            estimate D2E/DX2                !
 ! A1    A(2,1,3)              107.0            estimate D2E/DX2                !
 --------------------------------------------------------------------------------
 Trust Radius=3.00D-01 FncErr=1.00D-07 GrdErr=1.00D-06 EigMax=2.50D+02 EigMin=1.00D-04
 Number of steps in this run=     20 maximum allowed number of steps=    100.
 GradGradGradGradGradGradGradGradGradGradGradGradGradGradGradGradGradGrad

 Leave Link  103 at Fri Jun  7 15:43:01 2024, MaxMem=   134217728 cpu:               0.0 elap:               0.0
 (Enter /usr/local/g16_AVX/l202.exe)
                          Input orientation:                          
 ---------------------------------------------------------------------
 Center     Atomic      Atomic             Coordinates (Angstroms)
 Number     Number       Type             X           Y           Z
 ---------------------------------------------------------------------
      1          8           0        0.000000    0.000000    0.000000
      2          1           0        0.000000    0.000000    0.900000
      3          1           0        0.860674    0.000000   -0.263135
 ---------------------------------------------------------------------
                    Distance matrix (angstroms):
                    1          2          3
     1  O    0.000000
     2  H    0.900000   0.000000
     3  H    0.900000   1.446942   0.000000
 Stoichiometry    H2O
 Framework group  C2V[C2(O),SGV(H2)]
 Deg. of freedom     2
 Full point group                 C2V     NOp   4
 Largest Abelian subgroup         C2V     NOp   4
 Largest concise Abelian subgroup C2      NOp   2
                         Standard orientation:                         
 ---------------------------------------------------------------------
 Center     Atomic      Atomic             Coordinates (Angstroms)
 Number     Number       Type             X           Y           Z
 ---------------------------------------------------------------------
      1          8           0        0.000000    0.000000    0.107068
      2          1           0        0.000000    0.723471   -0.428272
      3          1           0       -0.000000   -0.723471   -0.428272
 ---------------------------------------------------------------------
 Rotational constants (GHZ):         985.1157230         479.0265630         322.3024179
 Leave Link  202 at Fri Jun  7 15:43:01 2024, MaxMem=   134217728 cpu:               0.1 elap:               0.0
 (Enter /usr/local/g16_AVX/l301.exe)
 Standard basis: 6-31G(d) (6D, 7F)
 Ernie: Thresh=  0.10000D-02 Tol=  0.10000D-05 Strict=F.
 There are    10 symmetry adapted cartesian basis functions of A1  symmetry.
 There are     1 symmetry adapted cartesian basis functions of A2  symmetry.
 There are     3 symmetry adapted cartesian basis functions of B1  symmetry.
 There are     5 symmetry adapted cartesian basis functions of B2  symmetry.
 There are    10 symmetry adapted basis functions of A1  symmetry.
 There are     1 symmetry adapted basis functions of A2  symmetry.
 There are     3 symmetry adapted basis functions of B1  symmetry.
 There are     5 symmetry adapted basis functions of B2  symmetry.
    19 basis functions,    36 primitive gaussians,    19 cartesian basis functions
     5 alpha electrons        5 beta electrons
       nuclear repulsion energy         9.7733158664 Hartrees.
 IExCor=  402 DFT=T Ex+Corr=B3LYP ExCW=0 ScaHFX=  0.200000
 ScaDFX=  0.800000  0.720000  1.000000  0.810000 ScalE2=  1.000000  1.000000
 IRadAn=      5 IRanWt=     -1 IRanGd=            0 ICorTp=0 IEmpDi=  4
 NAtoms=    3 NActive=    3 NUniq=    2 SFac= 2.25D+00 NAtFMM=   60 NAOKFM=F Big=F
 Integral buffers will be    131072 words long.
 Raffenetti 2 integral format.
 Two-electron integral symmetry is turned on.
 Leave Link  301 at Fri Jun  7 15:43:01 2024, MaxMem=   134217728 cpu:               0.5 elap:               0.1
 (Enter /usr/local/g16_AVX/l302.exe)
 NPDir=0 NMtPBC=     1 NCelOv=     1 NCel=       1 NClECP=     1 NCelD=      1
         NCelK=      1 NCelE2=     1 NClLst=     1 CellRange=     0.0.
 One-electron integrals computed using PRISM.
 One-electron integral symmetry used in STVInt
 NBasis=    19 RedAO= T EigKep=  2.03D-02  NBF=    10     1     3     5
 NBsUse=    19 1.00D-06 EigRej= -1.00D+00 NBFU=    10     1     3     5
 Precomputing XC quadrature grid using
 IXCGrd= 4 IRadAn=           5 IRanWt=          -1 IRanGd=           0 AccXCQ= 0.00D+00.
 Generated NRdTot=       0 NPtTot=           0 NUsed=           0 NTot=          32
 NSgBfM=    19    19    19    19    19 MxSgAt=     3 MxSgA2=     3.
 Leave Link  302 at Fri Jun  7 15:43:01 2024, MaxMem=   134217728 cpu:               1.3 elap:               0.1
 (Enter /usr/local/g16_AVX/l303.exe)
 DipDrv:  MaxL=1.
 Leave Link  303 at Fri Jun  7 15:43:01 2024, MaxMem=   134217728 cpu:               0.1 elap:               0.0
 (Enter /usr/local/g16_AVX/l401.exe)
 ExpMin= 1.61D-01 ExpMax= 5.48D+03 ExpMxC= 8.25D+02 IAcc=3 IRadAn=         5 AccDes= 0.00D+00
 Harris functional with IExCor=  402 and IRadAn=       5 diagonalized for initial guess.
 HarFok:  IExCor=  402 AccDes= 0.00D+00 IRadAn=         5 IDoV= 1 UseB2=F ITyADJ=14
 ICtDFT=  3500011 ScaDFX=  1.000000  1.000000  1.000000  1.000000
 FoFCou: FMM=F IPFlag=           0 FMFlag=      100000 FMFlg1=           0
         NFxFlg=           0 DoJE=T BraDBF=F KetDBF=T FulRan=T
         wScrn=  0.000000 ICntrl=       500 IOpCl=  0 I1Cent=   200000004 NGrid=           0
         NMat0=    1 NMatS0=      1 NMatT0=    0 NMatD0=    1 NMtDS0=    0 NMtDT0=    0
 Petite list used in FoFCou.
 Harris En= -76.4445680199771    
 JPrj=0 DoOrth=F DoCkMO=F.
 Initial guess orbital symmetries:
       Occupied  (A1) (A1) (B2) (A1) (B1)
       Virtual   (A1) (B2) (B2) (A1) (B1) (A1) (B2) (A1) (A1) (A2)
                 (B1) (A1) (B2) (A1)
 The electronic state of the initial guess is 1-A1.
 Leave Link  401 at Fri Jun  7 15:43:02 2024, MaxMem=   134217728 cpu:               2.0 elap:               0.2
 (Enter /usr/local/g16_AVX/l502.exe)
 Keep R1 ints in memory in symmetry-blocked form, NReq=10374932.
 FoFCou: FMM=F IPFlag=           0 FMFlag=           0 FMFlg1=           0
         NFxFlg=           0 DoJE=F BraDBF=F KetDBF=F FulRan=T
         wScrn=  0.000000 ICntrl=       600 IOpCl=  0 I1Cent=           0 NGrid=           0
         NMat0=    1 NMatS0=    190 NMatT0=    0 NMatD0=    1 NMtDS0=    0 NMtDT0=    0
 Petite list used in FoFCou.
 Closed shell SCF:
 Using DIIS extrapolation, IDIIS=  1040.
 NGot=   134217728 LenX=   134209678 LenY=   134208796
 Requested convergence on RMS density matrix=1.00D-08 within 128 cycles.
 Requested convergence on MAX density matrix=1.00D-06.
 Requested convergence on             energy=1.00D-06.
 No special actions if energy rises.
 Integral accuracy reduced to 1.0D-05 until final iterations.

 Cycle   1  Pass 0  IDiag  1:
 E= -76.3126970255944    
 DIIS: error= 8.40D-02 at cycle   1 NSaved=   1.
 NSaved= 1 IEnMin= 1 EnMin= -76.3126970255944     IErMin= 1 ErrMin= 8.40D-02
 ErrMax= 8.40D-02  0.00D+00 EMaxC= 1.00D-01 BMatC= 1.20D-01 BMatP= 1.20D-01
 IDIUse=3 WtCom= 1.60D-01 WtEn= 8.40D-01
 Coeff-Com:  0.100D+01
 Coeff-En:   0.100D+01
 Coeff:      0.100D+01
 Gap=     0.226 Goal=   None    Shift=    0.000
 GapD=    0.226 DampG=1.000 DampE=0.500 DampFc=0.5000 IDamp=-1.
 Damping current iteration by 5.00D-01
 RMSDP=2.89D-02 MaxDP=2.02D-01              OVMax= 1.91D-01

 Cycle   2  Pass 0  IDiag  1:
 E= -76.3460174733354     Delta-E=       -0.033320447741 Rises=F Damp=T
 DIIS: error= 1.55D-02 at cycle   2 NSaved=   2.
 NSaved= 2 IEnMin= 2 EnMin= -76.3460174733354     IErMin= 2 ErrMin= 1.55D-02
 ErrMax= 1.55D-02  0.00D+00 EMaxC= 1.00D-01 BMatC= 4.58D-03 BMatP= 1.20D-01
 IDIUse=3 WtCom= 8.45D-01 WtEn= 1.55D-01
 Coeff-Com:  0.148D+00 0.852D+00
 Coeff-En:   0.247D+00 0.753D+00
 Coeff:      0.163D+00 0.837D+00
 Gap=     0.365 Goal=   None    Shift=    0.000
 RMSDP=3.07D-03 MaxDP=3.09D-02 DE=-3.33D-02 OVMax= 1.03D-01

 Cycle   3  Pass 0  IDiag  1:
 E= -76.3989585265404     Delta-E=       -0.052941053205 Rises=F Damp=F
 DIIS: error= 2.22D-03 at cycle   3 NSaved=   3.
 NSaved= 3 IEnMin= 3 EnMin= -76.3989585265404     IErMin= 3 ErrMin= 2.22D-03
 ErrMax= 2.22D-03  0.00D+00 EMaxC= 1.00D-01 BMatC= 9.99D-05 BMatP= 4.58D-03
 IDIUse=3 WtCom= 9.78D-01 WtEn= 2.22D-02
 Coeff-Com:  0.246D-01-0.112D-01 0.987D+00
 Coeff-En:   0.000D+00 0.000D+00 0.100D+01
 Coeff:      0.241D-01-0.110D-01 0.987D+00
 Gap=     0.377 Goal=   None    Shift=    0.000
 RMSDP=3.10D-04 MaxDP=2.27D-03 DE=-5.29D-02 OVMax= 2.17D-03

 Cycle   4  Pass 0  IDiag  1:
 E= -76.3990235382790     Delta-E=       -0.000065011739 Rises=F Damp=F
 DIIS: error= 3.14D-04 at cycle   4 NSaved=   4.
 NSaved= 4 IEnMin= 4 EnMin= -76.3990235382790     IErMin= 4 ErrMin= 3.14D-04
 ErrMax= 3.14D-04  0.00D+00 EMaxC= 1.00D-01 BMatC= 1.66D-06 BMatP= 9.99D-05
 IDIUse=3 WtCom= 9.97D-01 WtEn= 3.14D-03
 Coeff-Com:  0.469D-02-0.148D-01 0.228D+00 0.782D+00
 Coeff-En:   0.000D+00 0.000D+00 0.000D+00 0.100D+01
 Coeff:      0.467D-02-0.148D-01 0.228D+00 0.782D+00
 Gap=     0.377 Goal=   None    Shift=    0.000
 RMSDP=3.31D-05 MaxDP=1.65D-04 DE=-6.50D-05 OVMax= 2.36D-04

 Cycle   5  Pass 0  IDiag  1:
 E= -76.3990247141522     Delta-E=       -0.000001175873 Rises=F Damp=F
 DIIS: error= 4.29D-05 at cycle   5 NSaved=   5.
 NSaved= 5 IEnMin= 5 EnMin= -76.3990247141522     IErMin= 5 ErrMin= 4.29D-05
 ErrMax= 4.29D-05  0.00D+00 EMaxC= 1.00D-01 BMatC= 2.53D-08 BMatP= 1.66D-06
 IDIUse=1 WtCom= 1.00D+00 WtEn= 0.00D+00
 Coeff-Com:  0.422D-03-0.259D-03 0.484D-03-0.244D-02 0.100D+01
 Coeff:      0.422D-03-0.259D-03 0.484D-03-0.244D-02 0.100D+01
 Gap=     0.377 Goal=   None    Shift=    0.000
 RMSDP=5.80D-06 MaxDP=4.85D-05 DE=-1.18D-06 OVMax= 3.42D-05

 Initial convergence to 1.0D-05 achieved.  Increase integral accuracy.
 Cycle   6  Pass 1  IDiag  1:
 E= -76.3990255166591     Delta-E=       -0.000000802507 Rises=F Damp=F
 DIIS: error= 6.68D-07 at cycle   1 NSaved=   1.
 NSaved= 1 IEnMin= 1 EnMin= -76.3990255166591     IErMin= 1 ErrMin= 6.68D-07
 ErrMax= 6.68D-07  0.00D+00 EMaxC= 1.00D-01 BMatC= 7.08D-12 BMatP= 7.08D-12
 IDIUse=1 WtCom= 1.00D+00 WtEn= 0.00D+00
 Coeff-Com:  0.100D+01
 Coeff:      0.100D+01
 Gap=     0.377 Goal=   None    Shift=    0.000
 RMSDP=5.80D-06 MaxDP=4.85D-05 DE=-8.03D-07 OVMax= 1.13D-06

 Cycle   7  Pass 1  IDiag  1:
 E= -76.3990255166618     Delta-E=       -0.000000000003 Rises=F Damp=F
 DIIS: error= 5.45D-07 at cycle   2 NSaved=   2.
 NSaved= 2 IEnMin= 2 EnMin= -76.3990255166618     IErMin= 2 ErrMin= 5.45D-07
 ErrMax= 5.45D-07  0.00D+00 EMaxC= 1.00D-01 BMatC= 5.06D-12 BMatP= 7.08D-12
 IDIUse=1 WtCom= 1.00D+00 WtEn= 0.00D+00
 Coeff-Com:  0.453D+00 0.547D+00
 Coeff:      0.453D+00 0.547D+00
 Gap=     0.377 Goal=   None    Shift=    0.000
 RMSDP=9.58D-08 MaxDP=6.53D-07 DE=-2.66D-12 OVMax= 6.49D-07

 Cycle   8  Pass 1  IDiag  1:
 E= -76.3990255166650     Delta-E=       -0.000000000003 Rises=F Damp=F
 DIIS: error= 1.61D-07 at cycle   3 NSaved=   3.
 NSaved= 3 IEnMin= 3 EnMin= -76.3990255166650     IErMin= 3 ErrMin= 1.61D-07
 ErrMax= 1.61D-07  0.00D+00 EMaxC= 1.00D-01 BMatC= 3.76D-13 BMatP= 5.06D-12
 IDIUse=1 WtCom= 1.00D+00 WtEn= 0.00D+00
 Coeff-Com: -0.340D-01 0.195D+00 0.839D+00
 Coeff:     -0.340D-01 0.195D+00 0.839D+00
 Gap=     0.377 Goal=   None    Shift=    0.000
 RMSDP=1.88D-08 MaxDP=1.63D-07 DE=-3.28D-12 OVMax= 1.32D-07

 Cycle   9  Pass 1  IDiag  1:
 E= -76.3990255166652     Delta-E=       -0.000000000000 Rises=F Damp=F
 DIIS: error= 2.23D-09 at cycle   4 NSaved=   4.
 NSaved= 4 IEnMin= 4 EnMin= -76.3990255166652     IErMin= 4 ErrMin= 2.23D-09
 ErrMax= 2.23D-09  0.00D+00 EMaxC= 1.00D-01 BMatC= 8.03D-17 BMatP= 3.76D-13
 IDIUse=1 WtCom= 1.00D+00 WtEn= 0.00D+00
 Coeff-Com: -0.904D-03-0.903D-02-0.173D-01 0.103D+01
 Coeff:     -0.904D-03-0.903D-02-0.173D-01 0.103D+01
 Gap=     0.377 Goal=   None    Shift=    0.000
 RMSDP=9.98D-10 MaxDP=8.29D-09 DE=-1.85D-13 OVMax= 8.78D-09

 SCF Done:  E(RB3LYP) =  -76.3990255167     A.U. after    9 cycles
            NFock=  9  Conv=0.10D-08     -V/T= 2.0042
 KE= 7.608204095656D+01 PE=-2.002283269475D+02 EE= 3.797394460791D+01
 Leave Link  502 at Fri Jun  7 15:43:02 2024, MaxMem=   134217728 cpu:               2.1 elap:               0.2
 (Enter /usr/local/g16_AVX/l601.exe)
 Copying SCF densities to generalized density rwf, IOpCl= 0 IROHF=0.

 **********************************************************************

            Population analysis using the SCF Density.

 **********************************************************************

 Orbital symmetries:
       Occupied  (A1) (A1) (B2) (A1) (B1)
       Virtual   (A1) (B2) (B2) (A1) (B1) (A1) (B2) (A1) (A1) (A2)
                 (B1) (A1) (B2) (A1)
 The electronic state is 1-A1.
 Alpha  occ. eigenvalues --  -19.12449  -1.02689  -0.55070  -0.37054  -0.29580
 Alpha virt. eigenvalues --    0.08134   0.17176   0.81992   0.88587   0.89091
 Alpha virt. eigenvalues --    0.93714   1.08981   1.19583   1.72385   1.72742
 Alpha virt. eigenvalues --    1.77277   2.36864   2.70167   3.59471
          Condensed to atoms (all electrons):
               1          2          3
     1  O    8.254045   0.266207   0.266207
     2  H    0.266207   0.367262  -0.026698
     3  H    0.266207  -0.026698   0.367262
 Mulliken charges:
               1
     1  O   -0.786459
     2  H    0.393230
     3  H    0.393230
 Sum of Mulliken charges =  -0.00000
 Mulliken charges with hydrogens summed into heavy atoms:
               1
     1  O   -0.000000
 Electronic spatial extent (au):  <R**2>=             18.2700
 Charge=              0.0000 electrons
 Dipole moment (field-independent basis, Debye):
    X=             -0.0000    Y=             -0.0000    Z=             -2.0115  Tot=              2.0115
 Quadrupole moment (field-independent basis, Debye-Ang):
   XX=             -7.0638   YY=             -4.2458   ZZ=             -6.0336
   XY=              0.0000   XZ=              0.0000   YZ=             -0.0000
 Traceless Quadrupole moment (field-independent basis, Debye-Ang):
   XX=             -1.2827   YY=              1.5353   ZZ=             -0.2525
   XY=              0.0000   XZ=              0.0000   YZ=             -0.0000
 Octapole moment (field-independent basis, Debye-Ang**2):
  XXX=              0.0000  YYY=             -0.0000  ZZZ=             -1.2424  XYY=             -0.0000
  XXY=             -0.0000  XXZ=             -0.3610  XZZ=             -0.0000  YZZ=             -0.0000
  YYZ=             -1.0750  XYZ=             -0.0000
 Hexadecapole moment (field-independent basis, Debye-Ang**3):
 XXXX=             -5.0556 YYYY=             -5.3967 ZZZZ=             -5.7950 XXXY=             -0.0000
 XXXZ=             -0.0000 YYYX=             -0.0000 YYYZ=             -0.0000 ZZZX=             -0.0000
 ZZZY=             -0.0000 XXYY=             -1.9409 XXZZ=             -1.8412 YYZZ=             -1.6517
 XXYZ=             -0.0000 YYXZ=              0.0000 ZZXY=             -0.0000
 N-N= 9.773315866371D+00 E-N=-2.002283268968D+02  KE= 7.608204095656D+01
 Symmetry A1   KE= 6.777216027007D+01
 Symmetry A2   KE= 6.747684630082D-35
 Symmetry B1   KE= 4.587443916130D+00
 Symmetry B2   KE= 3.722436770356D+00
 No NMR shielding tensors so no spin-rotation constants.
 Leave Link  601 at Fri Jun  7 15:43:02 2024, MaxMem=   134217728 cpu:               1.2 elap:               0.1
 (Enter /usr/local/g16_AVX/l701.exe)
 ... and contract with generalized density number  0.
 Compute integral first derivatives.
 Leave Link  701 at Fri Jun  7 15:43:02 2024, MaxMem=   134217728 cpu:               1.1 elap:               0.1
 (Enter /usr/local/g16_AVX/l702.exe)
 L702 exits ... SP integral derivatives will be done elsewhere.
 Leave Link  702 at Fri Jun  7 15:43:02 2024, MaxMem=   134217728 cpu:               0.1 elap:               0.0
 (Enter /usr/local/g16_AVX/l703.exe)
 Integral derivatives from FoFJK, PRISM(SPDF).
 Compute integral first derivatives, UseDBF=F ICtDFT=           0.
 Calling FoFJK, ICntrl=      2127 FMM=F ISym2X=1 I1Cent= 0 IOpClX= 0 NMat=1 NMatS=1 NMatT=0.
 FoFJK:  IHMeth= 1 ICntrl=    2127 DoSepK=F KAlg= 0 I1Cent=           0 FoldK=F
 IRaf=         0 NMat=       1 IRICut=       1 DoRegI=T DoRafI=F ISym2E= 1 IDoP0=0 IntGTp=1.
 FoFCou: FMM=F IPFlag=           0 FMFlag=      100000 FMFlg1=         800
         NFxFlg=           0 DoJE=F BraDBF=F KetDBF=F FulRan=T
         wScrn=  0.000000 ICntrl=      2127 IOpCl=  0 I1Cent=           0 NGrid=           0
         NMat0=    1 NMatS0=      1 NMatT0=    0 NMatD0=    1 NMtDS0=    0 NMtDT0=    0
 Petite list used in FoFCou.
 Leave Link  703 at Fri Jun  7 15:43:03 2024, MaxMem=   134217728 cpu:               2.1 elap:               0.2
 (Enter /usr/local/g16_AVX/l716.exe)
 Dipole        =-6.32137588D-17 0.00000000D+00-7.91399891D-01
 ***** Axes restored to original set *****
 -------------------------------------------------------------------
 Center     Atomic                   Forces (Hartrees/Bohr)
 Number     Number              X              Y              Z
 -------------------------------------------------------------------
      1        8          -0.080484795    0.000000000   -0.059555616
      2        1           0.001109972   -0.000000000    0.082662246
      3        1           0.079374823   -0.000000000   -0.023106630
 -------------------------------------------------------------------
 Cartesian Forces:  Max     0.082662246 RMS     0.051308686
 Leave Link  716 at Fri Jun  7 15:43:03 2024, MaxMem=   134217728 cpu:               0.2 elap:               0.0
 (Enter /usr/local/g16_AVX/l103.exe)

 GradGradGradGradGradGradGradGradGradGradGradGradGradGradGradGradGradGrad
 Berny optimization.
 FormGI is forming the generalized inverse of G from B-inverse, IUseBI=4.
 Internal  Forces:  Max     0.082662246 RMS     0.067502241
 Search for a local minimum.
 Step number   1 out of a maximum of   20
 All quantities printed in internal units (Hartrees-Bohrs-Radians)
 RMS Force = .67502D-01 SwitMx=.10000D-02 MixMth= 1
 Mixed Optimization -- RFO/linear search
 Second derivative matrix not updated -- first step.
 The second derivative matrix:
                          R1        R2        A1
           R1           0.70673
           R2           0.00000   0.70673
           A1           0.00000   0.00000   0.16000
 ITU=  0
     Eigenvalues ---    0.16000   0.70673   0.70673
 RFO step:  Lambda=-1.88546063D-02 EMin= 1.60000000D-01
 Linear search not attempted -- first point.
 Iteration  1 RMS(Cart)=  0.07878890 RMS(Int)=  0.00038305
 Iteration  2 RMS(Cart)=  0.00037936 RMS(Int)=  0.00000008
 Iteration  3 RMS(Cart)=  0.00000007 RMS(Int)=  0.00000000
 ITry= 1 IFail=0 DXMaxC= 8.40D-02 DCOld= 1.00D+10 DXMaxT= 3.00D-01 DXLimC= 3.00D+00 Rises=F
 ClnCor:  largest displacement from symmetrization is 3.14D-16 for atom     3.
 Variable       Old X    -DE/DX   Delta X   Delta X   Delta X     New X
                                 (Linear)    (Quad)   (Total)
    R1        1.70075   0.08266   0.00000   0.11393   0.11393   1.81468
    R2        1.70075   0.08266   0.00000   0.11393   0.11393   1.81468
    A1        1.86750  -0.00189   0.00000  -0.01055  -0.01055   1.85695
         Item               Value     Threshold  Converged?
 Maximum Force            0.082662     0.000450     NO 
 RMS     Force            0.067502     0.000300     NO 
 Maximum Displacement     0.083981     0.001800     NO 
 RMS     Displacement     0.078613     0.001200     NO 
 Predicted change in Energy=-9.673073D-03
 Lowest energy point so far.  Saving SCF results.
 GradGradGradGradGradGradGradGradGradGradGradGradGradGradGradGradGradGrad

 Leave Link  103 at Fri Jun  7 15:43:03 2024, MaxMem=   134217728 cpu:               0.2 elap:               0.0
 (Enter /usr/local/g16_AVX/l202.exe)
                          Input orientation:                          
 ---------------------------------------------------------------------
 Center     Atomic      Atomic             Coordinates (Angstroms)
 Number     Number       Type             X           Y           Z
 ---------------------------------------------------------------------
      1          8           0       -0.021396   -0.000000   -0.015833
      2          1           0       -0.016329   -0.000000    0.944441
      3          1           0        0.898399    0.000000   -0.291743
 ---------------------------------------------------------------------
                    Distance matrix (angstroms):
                    1          2          3
     1  O    0.000000
     2  H    0.960287   0.000000
     3  H    0.960287   1.537816   0.000000
 Stoichiometry    H2O
 Framework group  C2V[C2(O),SGV(H2)]
 Deg. of freedom     2
 Full point group                 C2V     NOp   4
 RotChk:  IX=0 Diff= 1.66D-15
 Largest Abelian subgroup         C2V     NOp   4
 Largest concise Abelian subgroup C2      NOp   2
                         Standard orientation:                         
 ---------------------------------------------------------------------
 Center     Atomic      Atomic             Coordinates (Angstroms)
 Number     Number       Type             X           Y           Z
 ---------------------------------------------------------------------
      1          8           0        0.000000    0.000000    0.115053
      2          1           0       -0.000000    0.768908   -0.460213
      3          1           0       -0.000000   -0.768908   -0.460213
 ---------------------------------------------------------------------
 Rotational constants (GHZ):         853.1188408         424.0854461         283.2712729
 Leave Link  202 at Fri Jun  7 15:43:03 2024, MaxMem=   134217728 cpu:               0.1 elap:               0.0
 (Enter /usr/local/g16_AVX/l301.exe)
 Standard basis: 6-31G(d) (6D, 7F)
 Ernie: Thresh=  0.10000D-02 Tol=  0.10000D-05 Strict=F.
 There are    10 symmetry adapted cartesian basis functions of A1  symmetry.
 There are     1 symmetry adapted cartesian basis functions of A2  symmetry.
 There are     3 symmetry adapted cartesian basis functions of B1  symmetry.
 There are     5 symmetry adapted cartesian basis functions of B2  symmetry.
 There are    10 symmetry adapted basis functions of A1  symmetry.
 There are     1 symmetry adapted basis functions of A2  symmetry.
 There are     3 symmetry adapted basis functions of B1  symmetry.
 There are     5 symmetry adapted basis functions of B2  symmetry.
    19 basis functions,    36 primitive gaussians,    19 cartesian basis functions
     5 alpha electrons        5 beta electrons
       nuclear repulsion energy         9.1610954759 Hartrees.
 IExCor=  402 DFT=T Ex+Corr=B3LYP ExCW=0 ScaHFX=  0.200000
 ScaDFX=  0.800000  0.720000  1.000000  0.810000 ScalE2=  1.000000  1.000000
 IRadAn=      5 IRanWt=     -1 IRanGd=            0 ICorTp=0 IEmpDi=  4
 NAtoms=    3 NActive=    3 NUniq=    2 SFac= 2.25D+00 NAtFMM=   60 NAOKFM=F Big=F
 Integral buffers will be    131072 words long.
 Raffenetti 2 integral format.
 Two-electron integral symmetry is turned on.
 Leave Link  301 at Fri Jun  7 15:43:03 2024, MaxMem=   134217728 cpu:               0.3 elap:               0.0
 (Enter /usr/local/g16_AVX/l302.exe)
 NPDir=0 NMtPBC=     1 NCelOv=     1 NCel=       1 NClECP=     1 NCelD=      1
         NCelK=      1 NCelE2=     1 NClLst=     1 CellRange=     0.0.
 One-electron integrals computed using PRISM.
 One-electron integral symmetry used in STVInt
 NBasis=    19 RedAO= T EigKep=  2.24D-02  NBF=    10     1     3     5
 NBsUse=    19 1.00D-06 EigRej= -1.00D+00 NBFU=    10     1     3     5
 Precomputing XC quadrature grid using
 IXCGrd= 4 IRadAn=           5 IRanWt=          -1 IRanGd=           0 AccXCQ= 0.00D+00.
 Generated NRdTot=       0 NPtTot=           0 NUsed=           0 NTot=          32
 NSgBfM=    19    19    19    19    19 MxSgAt=     3 MxSgA2=     3.
 Leave Link  302 at Fri Jun  7 15:43:03 2024, MaxMem=   134217728 cpu:               1.4 elap:               0.1
 (Enter /usr/local/g16_AVX/l303.exe)
 DipDrv:  MaxL=1.
 Leave Link  303 at Fri Jun  7 15:43:03 2024, MaxMem=   134217728 cpu:               0.1 elap:               0.0
 (Enter /usr/local/g16_AVX/l401.exe)
 Initial guess from the checkpoint file:  "agua.chk"
 B after Tr=    -0.000000   -0.000000   -0.000000
         Rot=    1.000000    0.000000   -0.000000   -0.000000 Ang=   0.00 deg.
 Guess basis will be translated and rotated to current coordinates.
 JPrj=2 DoOrth=T DoCkMO=T.
 Initial guess orbital symmetries:
       Occupied  (A1) (A1) (B2) (A1) (B1)
       Virtual   (A1) (B2) (B2) (A1) (B1) (A1) (B2) (A1) (A1) (A2)
                 (B1) (A1) (B2) (A1)
 The electronic state of the initial guess is 1-A1.
 Generating alternative initial guess.
 ExpMin= 1.61D-01 ExpMax= 5.48D+03 ExpMxC= 8.25D+02 IAcc=3 IRadAn=         5 AccDes= 0.00D+00
 Harris functional with IExCor=  402 and IRadAn=       5 diagonalized for initial guess.
 HarFok:  IExCor=  402 AccDes= 0.00D+00 IRadAn=         5 IDoV= 1 UseB2=F ITyADJ=14
 ICtDFT=  3500011 ScaDFX=  1.000000  1.000000  1.000000  1.000000
 FoFCou: FMM=F IPFlag=           0 FMFlag=      100000 FMFlg1=           0
         NFxFlg=           0 DoJE=T BraDBF=F KetDBF=T FulRan=T
         wScrn=  0.000000 ICntrl=       500 IOpCl=  0 I1Cent=   200000004 NGrid=           0
         NMat0=    1 NMatS0=      1 NMatT0=    0 NMatD0=    1 NMtDS0=    0 NMtDT0=    0
 Petite list used in FoFCou.
 Harris En= -76.4479179159669    
 Leave Link  401 at Fri Jun  7 15:43:03 2024, MaxMem=   134217728 cpu:               2.0 elap:               0.2
 (Enter /usr/local/g16_AVX/l502.exe)
 Keep R1 ints in memory in symmetry-blocked form, NReq=10374932.
 FoFCou: FMM=F IPFlag=           0 FMFlag=           0 FMFlg1=           0
         NFxFlg=           0 DoJE=F BraDBF=F KetDBF=F FulRan=T
         wScrn=  0.000000 ICntrl=       600 IOpCl=  0 I1Cent=           0 NGrid=           0
         NMat0=    1 NMatS0=    190 NMatT0=    0 NMatD0=    1 NMtDS0=    0 NMtDT0=    0
 Petite list used in FoFCou.
 Closed shell SCF:
 Using DIIS extrapolation, IDIIS=  1040.
 NGot=   134217728 LenX=   134209678 LenY=   134208796
 Requested convergence on RMS density matrix=1.00D-08 within 128 cycles.
 Requested convergence on MAX density matrix=1.00D-06.
 Requested convergence on             energy=1.00D-06.
 No special actions if energy rises.
 Integral accuracy reduced to 1.0D-05 until final iterations.

 Cycle   1  Pass 0  IDiag  1:
 E= -76.4062091740549    
 DIIS: error= 1.23D-02 at cycle   1 NSaved=   1.
 NSaved= 1 IEnMin= 1 EnMin= -76.4062091740549     IErMin= 1 ErrMin= 1.23D-02
 ErrMax= 1.23D-02  0.00D+00 EMaxC= 1.00D-01 BMatC= 2.18D-03 BMatP= 2.18D-03
 IDIUse=3 WtCom= 8.77D-01 WtEn= 1.23D-01
 Coeff-Com:  0.100D+01
 Coeff-En:   0.100D+01
 Coeff:      0.100D+01
 Recover alternate guess density for next cycle.
 RMSDP=1.04D-02 MaxDP=6.80D-02              OVMax= 0.00D+00

 Cycle   2  Pass 0  IDiag  1:
 E= -76.3296359235532     Delta-E=        0.076573250502 Rises=F Damp=F
 Switch densities from cycles 1 and 2 for lowest energy.
 DIIS: error= 7.78D-02 at cycle   2 NSaved=   2.
 NSaved= 2 IEnMin= 1 EnMin= -76.4062091740549     IErMin= 1 ErrMin= 1.23D-02
 ErrMax= 7.78D-02  0.00D+00 EMaxC= 1.00D+00 BMatC= 1.06D-01 BMatP= 2.18D-03
 IDIUse=1 WtCom= 1.00D+00 WtEn= 0.00D+00
 Coeff-Com:  0.107D+01-0.712D-01
 Coeff:      0.107D+01-0.712D-01
 Gap=     0.360 Goal=   None    Shift=    0.000
 RMSDP=3.21D-03 MaxDP=2.43D-02 DE= 7.66D-02 OVMax= 2.51D-02

 Cycle   3  Pass 0  IDiag  1:
 E= -76.4084949764944     Delta-E=       -0.078859052941 Rises=F Damp=F
 DIIS: error= 3.91D-03 at cycle   3 NSaved=   3.
 NSaved= 3 IEnMin= 3 EnMin= -76.4084949764944     IErMin= 3 ErrMin= 3.91D-03
 ErrMax= 3.91D-03  0.00D+00 EMaxC= 1.00D+00 BMatC= 2.44D-04 BMatP= 2.18D-03
 IDIUse=1 WtCom= 1.00D+00 WtEn= 0.00D+00
 Coeff-Com:  0.106D+00 0.250D-01 0.869D+00
 Coeff:      0.106D+00 0.250D-01 0.869D+00
 Gap=     0.356 Goal=   None    Shift=    0.000
 RMSDP=5.01D-04 MaxDP=3.95D-03 DE=-7.89D-02 OVMax= 3.37D-03

 Cycle   4  Pass 0  IDiag  1:
 E= -76.4086643268616     Delta-E=       -0.000169350367 Rises=F Damp=F
 DIIS: error= 5.65D-04 at cycle   4 NSaved=   4.
 NSaved= 4 IEnMin= 4 EnMin= -76.4086643268616     IErMin= 4 ErrMin= 5.65D-04
 ErrMax= 5.65D-04  0.00D+00 EMaxC= 1.00D+00 BMatC= 3.80D-06 BMatP= 2.44D-04
 IDIUse=1 WtCom= 1.00D+00 WtEn= 0.00D+00
 Coeff-Com: -0.159D-01 0.752D-02 0.135D+00 0.873D+00
 Coeff:     -0.159D-01 0.752D-02 0.135D+00 0.873D+00
 Gap=     0.356 Goal=   None    Shift=    0.000
 RMSDP=6.48D-05 MaxDP=2.71D-04 DE=-1.69D-04 OVMax= 5.17D-04

 Cycle   5  Pass 0  IDiag  1:
 E= -76.4086674102172     Delta-E=       -0.000003083356 Rises=F Damp=F
 DIIS: error= 2.62D-05 at cycle   5 NSaved=   5.
 NSaved= 5 IEnMin= 5 EnMin= -76.4086674102172     IErMin= 5 ErrMin= 2.62D-05
 ErrMax= 2.62D-05  0.00D+00 EMaxC= 1.00D+00 BMatC= 9.21D-09 BMatP= 3.80D-06
 IDIUse=1 WtCom= 1.00D+00 WtEn= 0.00D+00
 Coeff-Com:  0.120D-03-0.165D-03-0.913D-02-0.197D-01 0.103D+01
 Coeff:      0.120D-03-0.165D-03-0.913D-02-0.197D-01 0.103D+01
 Gap=     0.356 Goal=   None    Shift=    0.000
 RMSDP=6.65D-06 MaxDP=3.81D-05 DE=-3.08D-06 OVMax= 5.39D-05

 Initial convergence to 1.0D-05 achieved.  Increase integral accuracy.
 Cycle   6  Pass 1  IDiag  1:
 E= -76.4086683625589     Delta-E=       -0.000000952342 Rises=F Damp=F
 DIIS: error= 2.94D-06 at cycle   1 NSaved=   1.
 NSaved= 1 IEnMin= 1 EnMin= -76.4086683625589     IErMin= 1 ErrMin= 2.94D-06
 ErrMax= 2.94D-06  0.00D+00 EMaxC= 1.00D+00 BMatC= 1.24D-10 BMatP= 1.24D-10
 IDIUse=1 WtCom= 1.00D+00 WtEn= 0.00D+00
 Coeff-Com:  0.100D+01
 Coeff:      0.100D+01
 Gap=     0.356 Goal=   None    Shift=    0.000
 RMSDP=6.65D-06 MaxDP=3.81D-05 DE=-9.52D-07 OVMax= 7.82D-06

 Cycle   7  Pass 1  IDiag  1:
 E= -76.4086683625280     Delta-E=        0.000000000031 Rises=F Damp=F
 DIIS: error= 3.47D-06 at cycle   2 NSaved=   2.
 NSaved= 2 IEnMin= 1 EnMin= -76.4086683625589     IErMin= 1 ErrMin= 2.94D-06
 ErrMax= 3.47D-06  0.00D+00 EMaxC= 1.00D+00 BMatC= 2.03D-10 BMatP= 1.24D-10
 IDIUse=1 WtCom= 1.00D+00 WtEn= 0.00D+00
 Coeff-Com:  0.563D+00 0.437D+00
 Coeff:      0.563D+00 0.437D+00
 Gap=     0.356 Goal=   None    Shift=    0.000
 RMSDP=5.18D-07 MaxDP=3.60D-06 DE= 3.09D-11 OVMax= 3.62D-06

 Cycle   8  Pass 1  IDiag  1:
 E= -76.4086683626699     Delta-E=       -0.000000000142 Rises=F Damp=F
 DIIS: error= 2.50D-07 at cycle   3 NSaved=   3.
 NSaved= 3 IEnMin= 3 EnMin= -76.4086683626699     IErMin= 3 ErrMin= 2.50D-07
 ErrMax= 2.50D-07  0.00D+00 EMaxC= 1.00D+00 BMatC= 7.45D-13 BMatP= 1.24D-10
 IDIUse=1 WtCom= 1.00D+00 WtEn= 0.00D+00
 Coeff-Com: -0.507D-01 0.188D-01 0.103D+01
 Coeff:     -0.507D-01 0.188D-01 0.103D+01
 Gap=     0.356 Goal=   None    Shift=    0.000
 RMSDP=5.16D-08 MaxDP=2.73D-07 DE=-1.42D-10 OVMax= 3.53D-07

 Cycle   9  Pass 1  IDiag  1:
 E= -76.4086683626706     Delta-E=       -0.000000000001 Rises=F Damp=F
 DIIS: error= 2.98D-08 at cycle   4 NSaved=   4.
 NSaved= 4 IEnMin= 4 EnMin= -76.4086683626706     IErMin= 4 ErrMin= 2.98D-08
 ErrMax= 2.98D-08  0.00D+00 EMaxC= 1.00D+00 BMatC= 1.12D-14 BMatP= 7.45D-13
 IDIUse=1 WtCom= 1.00D+00 WtEn= 0.00D+00
 Coeff-Com: -0.228D-01-0.338D-02 0.216D+00 0.810D+00
 Coeff:     -0.228D-01-0.338D-02 0.216D+00 0.810D+00
 Gap=     0.356 Goal=   None    Shift=    0.000
 RMSDP=4.10D-09 MaxDP=1.86D-08 DE=-7.25D-13 OVMax= 3.56D-08

 SCF Done:  E(RB3LYP) =  -76.4086683627     A.U. after    9 cycles
            NFock=  9  Conv=0.41D-08     -V/T= 2.0075
 KE= 7.584293948770D+01 PE=-1.989195050136D+02 EE= 3.750680168738D+01
 Leave Link  502 at Fri Jun  7 15:43:04 2024, MaxMem=   134217728 cpu:               1.9 elap:               0.2
 (Enter /usr/local/g16_AVX/l701.exe)
 ... and contract with generalized density number  0.
 Compute integral first derivatives.
 Leave Link  701 at Fri Jun  7 15:43:04 2024, MaxMem=   134217728 cpu:               1.6 elap:               0.2
 (Enter /usr/local/g16_AVX/l702.exe)
 L702 exits ... SP integral derivatives will be done elsewhere.
 Leave Link  702 at Fri Jun  7 15:43:04 2024, MaxMem=   134217728 cpu:               0.4 elap:               0.0
 (Enter /usr/local/g16_AVX/l703.exe)
 Integral derivatives from FoFJK, PRISM(SPDF).
 Compute integral first derivatives, UseDBF=F ICtDFT=           0.
 Calling FoFJK, ICntrl=      2127 FMM=F ISym2X=1 I1Cent= 0 IOpClX= 0 NMat=1 NMatS=1 NMatT=0.
 FoFJK:  IHMeth= 1 ICntrl=    2127 DoSepK=F KAlg= 0 I1Cent=           0 FoldK=F
 IRaf=         0 NMat=       1 IRICut=       1 DoRegI=T DoRafI=F ISym2E= 1 IDoP0=0 IntGTp=1.
 FoFCou: FMM=F IPFlag=           0 FMFlag=      100000 FMFlg1=         800
         NFxFlg=           0 DoJE=F BraDBF=F KetDBF=F FulRan=T
         wScrn=  0.000000 ICntrl=      2127 IOpCl=  0 I1Cent=           0 NGrid=           0
         NMat0=    1 NMatS0=      1 NMatT0=    0 NMatD0=    1 NMtDS0=    0 NMtDT0=    0
 Petite list used in FoFCou.
 Leave Link  703 at Fri Jun  7 15:43:04 2024, MaxMem=   134217728 cpu:               2.2 elap:               0.2
 (Enter /usr/local/g16_AVX/l716.exe)
 Dipole        =-6.70051150D-17 0.00000000D+00-8.06504523D-01
 ***** Axes restored to original set *****
 -------------------------------------------------------------------
 Center     Atomic                   Forces (Hartrees/Bohr)
 Number     Number              X              Y              Z
 -------------------------------------------------------------------
      1        8          -0.011822449    0.000000000   -0.008748152
      2        1           0.004086620   -0.000000000    0.006839888
      3        1           0.007735829   -0.000000000    0.001908264
 -------------------------------------------------------------------
 Cartesian Forces:  Max     0.011822449 RMS     0.006175845
 Leave Link  716 at Fri Jun  7 15:43:04 2024, MaxMem=   134217728 cpu:               0.1 elap:               0.0
 (Enter /usr/local/g16_AVX/l103.exe)

 GradGradGradGradGradGradGradGradGradGradGradGradGradGradGradGradGradGrad
 Berny optimization.
 Using GEDIIS/GDIIS optimizer.
 FormGI is forming the generalized inverse of G from B-inverse, IUseBI=4.
 Internal  Forces:  Max     0.007350296 RMS     0.007028119
 Search for a local minimum.
 Step number   2 out of a maximum of   20
 All quantities printed in internal units (Hartrees-Bohrs-Radians)
 RMS Force = .70281D-02 SwitMx=.10000D-02 MixMth= 1
 Mixed Optimization -- RFO/linear search
 Update second derivatives using D2CorX and points    1    2
 DE= -9.64D-03 DEPred=-9.67D-03 R= 9.97D-01
 TightC=F SS=  1.41D+00  RLast= 1.61D-01 DXNew= 5.0454D-01 4.8438D-01
 Trust test= 9.97D-01 RLast= 1.61D-01 DXMaxT set to 4.84D-01
 The second derivative matrix:
                          R1        R2        A1
           R1           0.68750
           R2          -0.01923   0.68750
           A1           0.03146   0.03146   0.16158
 ITU=  1  0
 Use linear search instead of GDIIS.
     Eigenvalues ---    0.15770   0.67215   0.70673
 RFO step:  Lambda=-4.21374266D-04 EMin= 1.57701424D-01
 Quartic linear search produced a step of  0.12323.
 Iteration  1 RMS(Cart)=  0.02604152 RMS(Int)=  0.00057830
 Iteration  2 RMS(Cart)=  0.00061894 RMS(Int)=  0.00000010
 Iteration  3 RMS(Cart)=  0.00000008 RMS(Int)=  0.00000000
 ITry= 1 IFail=0 DXMaxC= 2.56D-02 DCOld= 1.00D+10 DXMaxT= 4.84D-01 DXLimC= 3.00D+00 Rises=F
 ClnCor:  largest displacement from symmetrization is 3.79D-15 for atom     3.
 Variable       Old X    -DE/DX   Delta X   Delta X   Delta X     New X
                                 (Linear)    (Quad)   (Total)
    R1        1.81468   0.00686   0.01404   0.00185   0.01589   1.83057
    R2        1.81468   0.00686   0.01404   0.00185   0.01589   1.83057
    A1        1.85695  -0.00735  -0.00130  -0.05145  -0.05275   1.80420
         Item               Value     Threshold  Converged?
 Maximum Force            0.007350     0.000450     NO 
 RMS     Force            0.007028     0.000300     NO 
 Maximum Displacement     0.025611     0.001800     NO 
 RMS     Displacement     0.026336     0.001200     NO 
 Predicted change in Energy=-2.649857D-04
 Lowest energy point so far.  Saving SCF results.
 GradGradGradGradGradGradGradGradGradGradGradGradGradGradGradGradGradGrad

 Leave Link  103 at Fri Jun  7 15:43:04 2024, MaxMem=   134217728 cpu:               0.1 elap:               0.0
 (Enter /usr/local/g16_AVX/l202.exe)
                          Input orientation:                          
 ---------------------------------------------------------------------
 Center     Atomic      Atomic             Coordinates (Angstroms)
 Number     Number       Type             X           Y           Z
 ---------------------------------------------------------------------
      1          8           0       -0.034949   -0.000000   -0.025861
      2          1           0       -0.004294   -0.000000    0.942349
      3          1           0        0.899918    0.000000   -0.279623
 ---------------------------------------------------------------------
                    Distance matrix (angstroms):
                    1          2          3
     1  O    0.000000
     2  H    0.968696   0.000000
     3  H    0.968696   1.520136   0.000000
 Stoichiometry    H2O
 Framework group  C2V[C2(O),SGV(H2)]
 Deg. of freedom     2
 Full point group                 C2V     NOp   4
 RotChk:  IX=0 Diff= 5.49D-16
 Largest Abelian subgroup         C2V     NOp   4
 Largest concise Abelian subgroup C2      NOp   2
                         Standard orientation:                         
 ---------------------------------------------------------------------
 Center     Atomic      Atomic             Coordinates (Angstroms)
 Number     Number       Type             X           Y           Z
 ---------------------------------------------------------------------
      1          8           0        0.000000   -0.000000    0.120111
      2          1           0       -0.000000    0.760068   -0.480445
      3          1           0       -0.000000   -0.760068   -0.480445
 ---------------------------------------------------------------------
 Rotational constants (GHZ):         782.7810540         434.0073156         279.2044306
 Leave Link  202 at Fri Jun  7 15:43:04 2024, MaxMem=   134217728 cpu:               0.0 elap:               0.0
 (Enter /usr/local/g16_AVX/l301.exe)
 Standard basis: 6-31G(d) (6D, 7F)
 Ernie: Thresh=  0.10000D-02 Tol=  0.10000D-05 Strict=F.
 There are    10 symmetry adapted cartesian basis functions of A1  symmetry.
 There are     1 symmetry adapted cartesian basis functions of A2  symmetry.
 There are     3 symmetry adapted cartesian basis functions of B1  symmetry.
 There are     5 symmetry adapted cartesian basis functions of B2  symmetry.
 There are    10 symmetry adapted basis functions of A1  symmetry.
 There are     1 symmetry adapted basis functions of A2  symmetry.
 There are     3 symmetry adapted basis functions of B1  symmetry.
 There are     5 symmetry adapted basis functions of B2  symmetry.
    19 basis functions,    36 primitive gaussians,    19 cartesian basis functions
     5 alpha electrons        5 beta electrons
       nuclear repulsion energy         9.0885617433 Hartrees.
 IExCor=  402 DFT=T Ex+Corr=B3LYP ExCW=0 ScaHFX=  0.200000
 ScaDFX=  0.800000  0.720000  1.000000  0.810000 ScalE2=  1.000000  1.000000
 IRadAn=      5 IRanWt=     -1 IRanGd=            0 ICorTp=0 IEmpDi=  4
 NAtoms=    3 NActive=    3 NUniq=    2 SFac= 2.25D+00 NAtFMM=   60 NAOKFM=F Big=F
 Integral buffers will be    131072 words long.
 Raffenetti 2 integral format.
 Two-electron integral symmetry is turned on.
 Leave Link  301 at Fri Jun  7 15:43:04 2024, MaxMem=   134217728 cpu:               0.5 elap:               0.1
 (Enter /usr/local/g16_AVX/l302.exe)
 NPDir=0 NMtPBC=     1 NCelOv=     1 NCel=       1 NClECP=     1 NCelD=      1
         NCelK=      1 NCelE2=     1 NClLst=     1 CellRange=     0.0.
 One-electron integrals computed using PRISM.
 One-electron integral symmetry used in STVInt
 NBasis=    19 RedAO= T EigKep=  2.27D-02  NBF=    10     1     3     5
 NBsUse=    19 1.00D-06 EigRej= -1.00D+00 NBFU=    10     1     3     5
 Precomputing XC quadrature grid using
 IXCGrd= 4 IRadAn=           5 IRanWt=          -1 IRanGd=           0 AccXCQ= 0.00D+00.
 Generated NRdTot=       0 NPtTot=           0 NUsed=           0 NTot=          32
 NSgBfM=    19    19    19    19    19 MxSgAt=     3 MxSgA2=     3.
 Leave Link  302 at Fri Jun  7 15:43:04 2024, MaxMem=   134217728 cpu:               1.1 elap:               0.1
 (Enter /usr/local/g16_AVX/l303.exe)
 DipDrv:  MaxL=1.
 Leave Link  303 at Fri Jun  7 15:43:04 2024, MaxMem=   134217728 cpu:               0.2 elap:               0.0
 (Enter /usr/local/g16_AVX/l401.exe)
 Initial guess from the checkpoint file:  "agua.chk"
 B after Tr=     0.000000    0.000000    0.000000
         Rot=    1.000000   -0.000000    0.000000    0.000000 Ang=   0.00 deg.
 Guess basis will be translated and rotated to current coordinates.
 JPrj=2 DoOrth=T DoCkMO=T.
 Initial guess orbital symmetries:
       Occupied  (A1) (A1) (B2) (A1) (B1)
       Virtual   (A1) (B2) (B2) (A1) (B1) (A1) (B2) (A1) (A1) (A2)
                 (B1) (A1) (B2) (A1)
 The electronic state of the initial guess is 1-A1.
 Generating alternative initial guess.
 ExpMin= 1.61D-01 ExpMax= 5.48D+03 ExpMxC= 8.25D+02 IAcc=3 IRadAn=         5 AccDes= 0.00D+00
 Harris functional with IExCor=  402 and IRadAn=       5 diagonalized for initial guess.
 HarFok:  IExCor=  402 AccDes= 0.00D+00 IRadAn=         5 IDoV= 1 UseB2=F ITyADJ=14
 ICtDFT=  3500011 ScaDFX=  1.000000  1.000000  1.000000  1.000000
 FoFCou: FMM=F IPFlag=           0 FMFlag=      100000 FMFlg1=           0
         NFxFlg=           0 DoJE=T BraDBF=F KetDBF=T FulRan=T
         wScrn=  0.000000 ICntrl=       500 IOpCl=  0 I1Cent=   200000004 NGrid=           0
         NMat0=    1 NMatS0=      1 NMatT0=    0 NMatD0=    1 NMtDS0=    0 NMtDT0=    0
 Petite list used in FoFCou.
 Harris En= -76.4471080254028    
 Leave Link  401 at Fri Jun  7 15:43:04 2024, MaxMem=   134217728 cpu:               2.0 elap:               0.2
 (Enter /usr/local/g16_AVX/l502.exe)
 Keep R1 ints in memory in symmetry-blocked form, NReq=10374932.
 FoFCou: FMM=F IPFlag=           0 FMFlag=           0 FMFlg1=           0
         NFxFlg=           0 DoJE=F BraDBF=F KetDBF=F FulRan=T
         wScrn=  0.000000 ICntrl=       600 IOpCl=  0 I1Cent=           0 NGrid=           0
         NMat0=    1 NMatS0=    190 NMatT0=    0 NMatD0=    1 NMtDS0=    0 NMtDT0=    0
 Petite list used in FoFCou.
 Closed shell SCF:
 Using DIIS extrapolation, IDIIS=  1040.
 NGot=   134217728 LenX=   134209678 LenY=   134208796
 Requested convergence on RMS density matrix=1.00D-08 within 128 cycles.
 Requested convergence on MAX density matrix=1.00D-06.
 Requested convergence on             energy=1.00D-06.
 No special actions if energy rises.
 Integral accuracy reduced to 1.0D-05 until final iterations.

 Cycle   1  Pass 0  IDiag  1:
 E= -76.4087872819581    
 DIIS: error= 2.37D-03 at cycle   1 NSaved=   1.
 NSaved= 1 IEnMin= 1 EnMin= -76.4087872819581     IErMin= 1 ErrMin= 2.37D-03
 ErrMax= 2.37D-03  0.00D+00 EMaxC= 1.00D-01 BMatC= 1.11D-04 BMatP= 1.11D-04
 IDIUse=3 WtCom= 9.76D-01 WtEn= 2.37D-02
 Coeff-Com:  0.100D+01
 Coeff-En:   0.100D+01
 Coeff:      0.100D+01
 Gap=     0.352 Goal=   None    Shift=    0.000
 GapD=    0.352 DampG=1.000 DampE=1.000 DampFc=1.0000 IDamp=-1.
 RMSDP=1.10D-03 MaxDP=9.06D-03              OVMax= 8.04D-03

 Cycle   2  Pass 0  IDiag  1:
 E= -76.4089174347060     Delta-E=       -0.000130152748 Rises=F Damp=F
 DIIS: error= 1.73D-03 at cycle   2 NSaved=   2.
 NSaved= 2 IEnMin= 2 EnMin= -76.4089174347060     IErMin= 2 ErrMin= 1.73D-03
 ErrMax= 1.73D-03  0.00D+00 EMaxC= 1.00D-01 BMatC= 4.80D-05 BMatP= 1.11D-04
 IDIUse=3 WtCom= 9.83D-01 WtEn= 1.73D-02
 Coeff-Com:  0.341D+00 0.659D+00
 Coeff-En:   0.000D+00 0.100D+01
 Coeff:      0.335D+00 0.665D+00
 Gap=     0.355 Goal=   None    Shift=    0.000
 RMSDP=3.68D-04 MaxDP=2.43D-03 DE=-1.30D-04 OVMax= 2.70D-03

 Cycle   3  Pass 0  IDiag  1:
 E= -76.4089386849374     Delta-E=       -0.000021250231 Rises=F Damp=F
 DIIS: error= 1.01D-03 at cycle   3 NSaved=   3.
 NSaved= 3 IEnMin= 3 EnMin= -76.4089386849374     IErMin= 3 ErrMin= 1.01D-03
 ErrMax= 1.01D-03  0.00D+00 EMaxC= 1.00D-01 BMatC= 1.77D-05 BMatP= 4.80D-05
 IDIUse=3 WtCom= 9.90D-01 WtEn= 1.01D-02
 Coeff-Com: -0.301D-01 0.380D+00 0.651D+00
 Coeff-En:   0.000D+00 0.289D+00 0.711D+00
 Coeff:     -0.298D-01 0.379D+00 0.651D+00
 Gap=     0.354 Goal=   None    Shift=    0.000
 RMSDP=1.49D-04 MaxDP=1.05D-03 DE=-2.13D-05 OVMax= 1.12D-03

 Cycle   4  Pass 0  IDiag  1:
 E= -76.4089512018575     Delta-E=       -0.000012516920 Rises=F Damp=F
 DIIS: error= 1.16D-05 at cycle   4 NSaved=   4.
 NSaved= 4 IEnMin= 4 EnMin= -76.4089512018575     IErMin= 4 ErrMin= 1.16D-05
 ErrMax= 1.16D-05  0.00D+00 EMaxC= 1.00D-01 BMatC= 2.66D-09 BMatP= 1.77D-05
 IDIUse=1 WtCom= 1.00D+00 WtEn= 0.00D+00
 Coeff-Com: -0.312D-02 0.194D-01 0.355D-01 0.948D+00
 Coeff:     -0.312D-02 0.194D-01 0.355D-01 0.948D+00
 Gap=     0.354 Goal=   None    Shift=    0.000
 RMSDP=4.25D-06 MaxDP=3.60D-05 DE=-1.25D-05 OVMax= 3.36D-05

 Initial convergence to 1.0D-05 achieved.  Increase integral accuracy.
 Cycle   5  Pass 1  IDiag  1:
 E= -76.4089518543120     Delta-E=       -0.000000652454 Rises=F Damp=F
 DIIS: error= 4.00D-06 at cycle   1 NSaved=   1.
 NSaved= 1 IEnMin= 1 EnMin= -76.4089518543120     IErMin= 1 ErrMin= 4.00D-06
 ErrMax= 4.00D-06  0.00D+00 EMaxC= 1.00D-01 BMatC= 2.09D-10 BMatP= 2.09D-10
 IDIUse=1 WtCom= 1.00D+00 WtEn= 0.00D+00
 Coeff-Com:  0.100D+01
 Coeff:      0.100D+01
 Gap=     0.354 Goal=   None    Shift=    0.000
 RMSDP=4.25D-06 MaxDP=3.60D-05 DE=-6.52D-07 OVMax= 6.26D-06

 Cycle   6  Pass 1  IDiag  1:
 E= -76.4089518544631     Delta-E=       -0.000000000151 Rises=F Damp=F
 DIIS: error= 1.52D-06 at cycle   2 NSaved=   2.
 NSaved= 2 IEnMin= 2 EnMin= -76.4089518544631     IErMin= 2 ErrMin= 1.52D-06
 ErrMax= 1.52D-06  0.00D+00 EMaxC= 1.00D-01 BMatC= 3.93D-11 BMatP= 2.09D-10
 IDIUse=1 WtCom= 1.00D+00 WtEn= 0.00D+00
 Coeff-Com:  0.289D+00 0.711D+00
 Coeff:      0.289D+00 0.711D+00
 Gap=     0.354 Goal=   None    Shift=    0.000
 RMSDP=3.30D-07 MaxDP=3.03D-06 DE=-1.51D-10 OVMax= 2.23D-06

 Cycle   7  Pass 1  IDiag  1:
 E= -76.4089518544869     Delta-E=       -0.000000000024 Rises=F Damp=F
 DIIS: error= 7.52D-07 at cycle   3 NSaved=   3.
 NSaved= 3 IEnMin= 3 EnMin= -76.4089518544869     IErMin= 3 ErrMin= 7.52D-07
 ErrMax= 7.52D-07  0.00D+00 EMaxC= 1.00D-01 BMatC= 9.20D-12 BMatP= 3.93D-11
 IDIUse=1 WtCom= 1.00D+00 WtEn= 0.00D+00
 Coeff-Com:  0.140D+00 0.413D+00 0.447D+00
 Coeff:      0.140D+00 0.413D+00 0.447D+00
 Gap=     0.354 Goal=   None    Shift=    0.000
 RMSDP=9.73D-08 MaxDP=6.70D-07 DE=-2.39D-11 OVMax= 7.65D-07

 Cycle   8  Pass 1  IDiag  1:
 E= -76.4089518544932     Delta-E=       -0.000000000006 Rises=F Damp=F
 DIIS: error= 3.27D-08 at cycle   4 NSaved=   4.
 NSaved= 4 IEnMin= 4 EnMin= -76.4089518544932     IErMin= 4 ErrMin= 3.27D-08
 ErrMax= 3.27D-08  0.00D+00 EMaxC= 1.00D-01 BMatC= 1.62D-14 BMatP= 9.20D-12
 IDIUse=1 WtCom= 1.00D+00 WtEn= 0.00D+00
 Coeff-Com: -0.247D-01-0.546D-01-0.316D-01 0.111D+01
 Coeff:     -0.247D-01-0.546D-01-0.316D-01 0.111D+01
 Gap=     0.354 Goal=   None    Shift=    0.000
 RMSDP=1.89D-08 MaxDP=1.23D-07 DE=-6.25D-12 OVMax= 1.78D-07

 Cycle   9  Pass 1  IDiag  1:
 E= -76.4089518544933     Delta-E=       -0.000000000000 Rises=F Damp=F
 DIIS: error= 7.97D-10 at cycle   5 NSaved=   5.
 NSaved= 5 IEnMin= 5 EnMin= -76.4089518544933     IErMin= 5 ErrMin= 7.97D-10
 ErrMax= 7.97D-10  0.00D+00 EMaxC= 1.00D-01 BMatC= 1.42D-17 BMatP= 1.62D-14
 IDIUse=1 WtCom= 1.00D+00 WtEn= 0.00D+00
 Coeff-Com:  0.842D-03 0.164D-02 0.190D-02-0.408D-01 0.104D+01
 Coeff:      0.842D-03 0.164D-02 0.190D-02-0.408D-01 0.104D+01
 Gap=     0.354 Goal=   None    Shift=    0.000
 RMSDP=1.85D-10 MaxDP=1.51D-09 DE=-9.95D-14 OVMax= 1.60D-09

 SCF Done:  E(RB3LYP) =  -76.4089518545     A.U. after    9 cycles
            NFock=  9  Conv=0.19D-09     -V/T= 2.0078
 KE= 7.582024138054D+01 PE=-1.987568460176D+02 EE= 3.743909103924D+01
 Leave Link  502 at Fri Jun  7 15:43:05 2024, MaxMem=   134217728 cpu:               2.3 elap:               0.2
 (Enter /usr/local/g16_AVX/l701.exe)
 ... and contract with generalized density number  0.
 Compute integral first derivatives.
 Leave Link  701 at Fri Jun  7 15:43:05 2024, MaxMem=   134217728 cpu:               1.1 elap:               0.1
 (Enter /usr/local/g16_AVX/l702.exe)
 L702 exits ... SP integral derivatives will be done elsewhere.
 Leave Link  702 at Fri Jun  7 15:43:05 2024, MaxMem=   134217728 cpu:               0.1 elap:               0.0
 (Enter /usr/local/g16_AVX/l703.exe)
 Integral derivatives from FoFJK, PRISM(SPDF).
 Compute integral first derivatives, UseDBF=F ICtDFT=           0.
 Calling FoFJK, ICntrl=      2127 FMM=F ISym2X=1 I1Cent= 0 IOpClX= 0 NMat=1 NMatS=1 NMatT=0.
 FoFJK:  IHMeth= 1 ICntrl=    2127 DoSepK=F KAlg= 0 I1Cent=           0 FoldK=F
 IRaf=         0 NMat=       1 IRICut=       1 DoRegI=T DoRafI=F ISym2E= 1 IDoP0=0 IntGTp=1.
 FoFCou: FMM=F IPFlag=           0 FMFlag=      100000 FMFlg1=         800
         NFxFlg=           0 DoJE=F BraDBF=F KetDBF=F FulRan=T
         wScrn=  0.000000 ICntrl=      2127 IOpCl=  0 I1Cent=           0 NGrid=           0
         NMat0=    1 NMatS0=      1 NMatT0=    0 NMatD0=    1 NMtDS0=    0 NMtDT0=    0
 Petite list used in FoFCou.
 Leave Link  703 at Fri Jun  7 15:43:05 2024, MaxMem=   134217728 cpu:               1.9 elap:               0.2
 (Enter /usr/local/g16_AVX/l716.exe)
 Dipole        =-6.57387918D-17 0.00000000D+00-8.26051280D-01
 ***** Axes restored to original set *****
 -------------------------------------------------------------------
 Center     Atomic                   Forces (Hartrees/Bohr)
 Number     Number              X              Y              Z
 -------------------------------------------------------------------
      1        8           0.000412765    0.000000000    0.000305430
      2        1          -0.000469159   -0.000000000    0.000202407
      3        1           0.000056394   -0.000000000   -0.000507837
 -------------------------------------------------------------------
 Cartesian Forces:  Max     0.000507837 RMS     0.000295488
 Leave Link  716 at Fri Jun  7 15:43:05 2024, MaxMem=   134217728 cpu:               0.1 elap:               0.0
 (Enter /usr/local/g16_AVX/l103.exe)

 GradGradGradGradGradGradGradGradGradGradGradGradGradGradGradGradGradGrad
 Berny optimization.
 Using GEDIIS/GDIIS optimizer.
 FormGI is forming the generalized inverse of G from B-inverse, IUseBI=4.
 Internal  Forces:  Max     0.000870124 RMS     0.000525166
 Search for a local minimum.
 Step number   3 out of a maximum of   20
 All quantities printed in internal units (Hartrees-Bohrs-Radians)
 RMS Force = .52517D-03 SwitMx=.10000D-02 MixMth= 2
 Mixed Optimization -- En-DIIS/RFO-DIIS
 Update second derivatives using D2CorX and points    1    2    3
 DE= -2.83D-04 DEPred=-2.65D-04 R= 1.07D+00
 TightC=F SS=  1.41D+00  RLast= 5.73D-02 DXNew= 8.1463D-01 1.7201D-01
 Trust test= 1.07D+00 RLast= 5.73D-02 DXMaxT set to 4.84D-01
 The second derivative matrix:
                          R1        R2        A1
           R1           0.63340
           R2          -0.07333   0.63340
           A1           0.04220   0.04220   0.18127
 ITU=  1  1  0
 Use linear search instead of GDIIS.
     Eigenvalues ---    0.17209   0.56925   0.70673
 RFO step:  Lambda=-1.70095254D-06 EMin= 1.72089377D-01
 Quartic linear search produced a step of -0.06154.
 Iteration  1 RMS(Cart)=  0.00274240 RMS(Int)=  0.00000429
 Iteration  2 RMS(Cart)=  0.00000372 RMS(Int)=  0.00000000
 Iteration  3 RMS(Cart)=  0.00000000 RMS(Int)=  0.00000000
 ITry= 1 IFail=0 DXMaxC= 2.85D-03 DCOld= 1.00D+10 DXMaxT= 4.84D-01 DXLimC= 3.00D+00 Rises=F
 ClnCor:  largest displacement from symmetrization is 5.98D-16 for atom     3.
 Variable       Old X    -DE/DX   Delta X   Delta X   Delta X     New X
                                 (Linear)    (Quad)   (Total)
    R1        1.83057   0.00019  -0.00098   0.00095  -0.00002   1.83054
    R2        1.83057   0.00019  -0.00098   0.00095  -0.00002   1.83054
    A1        1.80420   0.00087   0.00325   0.00155   0.00479   1.80899
         Item               Value     Threshold  Converged?
 Maximum Force            0.000870     0.000450     NO 
 RMS     Force            0.000525     0.000300     NO 
 Maximum Displacement     0.002854     0.001800     NO 
 RMS     Displacement     0.002741     0.001200     NO 
 Predicted change in Energy=-2.088775D-06
 Lowest energy point so far.  Saving SCF results.
 GradGradGradGradGradGradGradGradGradGradGradGradGradGradGradGradGradGrad

 Leave Link  103 at Fri Jun  7 15:43:05 2024, MaxMem=   134217728 cpu:               0.1 elap:               0.0
 (Enter /usr/local/g16_AVX/l202.exe)
                          Input orientation:                          
 ---------------------------------------------------------------------
 Center     Atomic      Atomic             Coordinates (Angstroms)
 Number     Number       Type             X           Y           Z
 ---------------------------------------------------------------------
      1          8           0       -0.033968   -0.000000   -0.025135
      2          1           0       -0.005634   -0.000000    0.943133
      3          1           0        0.900276    0.000000   -0.281133
 ---------------------------------------------------------------------
                    Distance matrix (angstroms):
                    1          2          3
     1  O    0.000000
     2  H    0.968682   0.000000
     3  H    0.968682   1.522990   0.000000
 Stoichiometry    H2O
 Framework group  C2V[C2(O),SGV(H2)]
 Deg. of freedom     2
 Full point group                 C2V     NOp   4
 RotChk:  IX=0 Diff= 8.80D-16
 Largest Abelian subgroup         C2V     NOp   4
 Largest concise Abelian subgroup C2      NOp   2
                         Standard orientation:                         
 ---------------------------------------------------------------------
 Center     Atomic      Atomic             Coordinates (Angstroms)
 Number     Number       Type             X           Y           Z
 ---------------------------------------------------------------------
      1          8           0        0.000000    0.000000    0.119745
      2          1           0       -0.000000    0.761495   -0.478980
      3          1           0       -0.000000   -0.761495   -0.478980
 ---------------------------------------------------------------------
 Rotational constants (GHZ):         787.5779670         432.3821752         279.1359018
 Leave Link  202 at Fri Jun  7 15:43:05 2024, MaxMem=   134217728 cpu:               0.1 elap:               0.0
 (Enter /usr/local/g16_AVX/l301.exe)
 Standard basis: 6-31G(d) (6D, 7F)
 Ernie: Thresh=  0.10000D-02 Tol=  0.10000D-05 Strict=F.
 There are    10 symmetry adapted cartesian basis functions of A1  symmetry.
 There are     1 symmetry adapted cartesian basis functions of A2  symmetry.
 There are     3 symmetry adapted cartesian basis functions of B1  symmetry.
 There are     5 symmetry adapted cartesian basis functions of B2  symmetry.
 There are    10 symmetry adapted basis functions of A1  symmetry.
 There are     1 symmetry adapted basis functions of A2  symmetry.
 There are     3 symmetry adapted basis functions of B1  symmetry.
 There are     5 symmetry adapted basis functions of B2  symmetry.
    19 basis functions,    36 primitive gaussians,    19 cartesian basis functions
     5 alpha electrons        5 beta electrons
       nuclear repulsion energy         9.0880275940 Hartrees.
 IExCor=  402 DFT=T Ex+Corr=B3LYP ExCW=0 ScaHFX=  0.200000
 ScaDFX=  0.800000  0.720000  1.000000  0.810000 ScalE2=  1.000000  1.000000
 IRadAn=      5 IRanWt=     -1 IRanGd=            0 ICorTp=0 IEmpDi=  4
 NAtoms=    3 NActive=    3 NUniq=    2 SFac= 2.25D+00 NAtFMM=   60 NAOKFM=F Big=F
 Integral buffers will be    131072 words long.
 Raffenetti 2 integral format.
 Two-electron integral symmetry is turned on.
 Leave Link  301 at Fri Jun  7 15:43:05 2024, MaxMem=   134217728 cpu:               0.6 elap:               0.1
 (Enter /usr/local/g16_AVX/l302.exe)
 NPDir=0 NMtPBC=     1 NCelOv=     1 NCel=       1 NClECP=     1 NCelD=      1
         NCelK=      1 NCelE2=     1 NClLst=     1 CellRange=     0.0.
 One-electron integrals computed using PRISM.
 One-electron integral symmetry used in STVInt
 NBasis=    19 RedAO= T EigKep=  2.27D-02  NBF=    10     1     3     5
 NBsUse=    19 1.00D-06 EigRej= -1.00D+00 NBFU=    10     1     3     5
 Precomputing XC quadrature grid using
 IXCGrd= 4 IRadAn=           5 IRanWt=          -1 IRanGd=           0 AccXCQ= 0.00D+00.
 Generated NRdTot=       0 NPtTot=           0 NUsed=           0 NTot=          32
 NSgBfM=    19    19    19    19    19 MxSgAt=     3 MxSgA2=     3.
 Leave Link  302 at Fri Jun  7 15:43:05 2024, MaxMem=   134217728 cpu:               1.1 elap:               0.1
 (Enter /usr/local/g16_AVX/l303.exe)
 DipDrv:  MaxL=1.
 Leave Link  303 at Fri Jun  7 15:43:05 2024, MaxMem=   134217728 cpu:               0.1 elap:               0.0
 (Enter /usr/local/g16_AVX/l401.exe)
 Initial guess from the checkpoint file:  "agua.chk"
 B after Tr=    -0.000000   -0.000000    0.000000
         Rot=    1.000000   -0.000000   -0.000000   -0.000000 Ang=   0.00 deg.
 Guess basis will be translated and rotated to current coordinates.
 JPrj=2 DoOrth=T DoCkMO=T.
 Initial guess orbital symmetries:
       Occupied  (A1) (A1) (B2) (A1) (B1)
       Virtual   (A1) (B2) (B2) (A1) (B1) (A1) (B2) (A1) (A1) (A2)
                 (B1) (A1) (B2) (A1)
 The electronic state of the initial guess is 1-A1.
 Leave Link  401 at Fri Jun  7 15:43:05 2024, MaxMem=   134217728 cpu:               0.5 elap:               0.1
 (Enter /usr/local/g16_AVX/l502.exe)
 Keep R1 ints in memory in symmetry-blocked form, NReq=10374932.
 FoFCou: FMM=F IPFlag=           0 FMFlag=           0 FMFlg1=           0
         NFxFlg=           0 DoJE=F BraDBF=F KetDBF=F FulRan=T
         wScrn=  0.000000 ICntrl=       600 IOpCl=  0 I1Cent=           0 NGrid=           0
         NMat0=    1 NMatS0=    190 NMatT0=    0 NMatD0=    1 NMtDS0=    0 NMtDT0=    0
 Petite list used in FoFCou.
 Closed shell SCF:
 Using DIIS extrapolation, IDIIS=  1040.
 NGot=   134217728 LenX=   134209678 LenY=   134208796
 Requested convergence on RMS density matrix=1.00D-08 within 128 cycles.
 Requested convergence on MAX density matrix=1.00D-06.
 Requested convergence on             energy=1.00D-06.
 No special actions if energy rises.

 Cycle   1  Pass 1  IDiag  1:
 E= -76.4089531845738    
 DIIS: error= 1.74D-04 at cycle   1 NSaved=   1.
 NSaved= 1 IEnMin= 1 EnMin= -76.4089531845738     IErMin= 1 ErrMin= 1.74D-04
 ErrMax= 1.74D-04  0.00D+00 EMaxC= 1.00D-01 BMatC= 6.42D-07 BMatP= 6.42D-07
 IDIUse=3 WtCom= 9.98D-01 WtEn= 1.74D-03
 Coeff-Com:  0.100D+01
 Coeff-En:   0.100D+01
 Coeff:      0.100D+01
 Gap=     0.354 Goal=   None    Shift=    0.000
 RMSDP=6.60D-05 MaxDP=4.74D-04              OVMax= 4.42D-04

 Cycle   2  Pass 1  IDiag  1:
 E= -76.4089539525381     Delta-E=       -0.000000767964 Rises=F Damp=F
 DIIS: error= 4.25D-05 at cycle   2 NSaved=   2.
 NSaved= 2 IEnMin= 2 EnMin= -76.4089539525381     IErMin= 2 ErrMin= 4.25D-05
 ErrMax= 4.25D-05  0.00D+00 EMaxC= 1.00D-01 BMatC= 2.60D-08 BMatP= 6.42D-07
 IDIUse=1 WtCom= 1.00D+00 WtEn= 0.00D+00
 Coeff-Com:  0.502D-01 0.950D+00
 Coeff:      0.502D-01 0.950D+00
 Gap=     0.354 Goal=   None    Shift=    0.000
 RMSDP=1.06D-05 MaxDP=7.92D-05 DE=-7.68D-07 OVMax= 9.22D-05

 Cycle   3  Pass 1  IDiag  1:
 E= -76.4089539551776     Delta-E=       -0.000000002640 Rises=F Damp=F
 DIIS: error= 3.79D-05 at cycle   3 NSaved=   3.
 NSaved= 3 IEnMin= 3 EnMin= -76.4089539551776     IErMin= 3 ErrMin= 3.79D-05
 ErrMax= 3.79D-05  0.00D+00 EMaxC= 1.00D-01 BMatC= 2.62D-08 BMatP= 2.60D-08
 IDIUse=1 WtCom= 1.00D+00 WtEn= 0.00D+00
 Coeff-Com: -0.281D-02 0.501D+00 0.501D+00
 Coeff:     -0.281D-02 0.501D+00 0.501D+00
 Gap=     0.354 Goal=   None    Shift=    0.000
 RMSDP=6.52D-06 MaxDP=4.81D-05 DE=-2.64D-09 OVMax= 4.54D-05

 Cycle   4  Pass 1  IDiag  1:
 E= -76.4089539731522     Delta-E=       -0.000000017975 Rises=F Damp=F
 DIIS: error= 7.13D-06 at cycle   4 NSaved=   4.
 NSaved= 4 IEnMin= 4 EnMin= -76.4089539731522     IErMin= 4 ErrMin= 7.13D-06
 ErrMax= 7.13D-06  0.00D+00 EMaxC= 1.00D-01 BMatC= 9.02D-10 BMatP= 2.60D-08
 IDIUse=1 WtCom= 1.00D+00 WtEn= 0.00D+00
 Coeff-Com: -0.881D-02 0.116D+00 0.206D+00 0.687D+00
 Coeff:     -0.881D-02 0.116D+00 0.206D+00 0.687D+00
 Gap=     0.354 Goal=   None    Shift=    0.000
 RMSDP=8.82D-07 MaxDP=6.52D-06 DE=-1.80D-08 OVMax= 6.10D-06

 Cycle   5  Pass 1  IDiag  1:
 E= -76.4089539737748     Delta-E=       -0.000000000623 Rises=F Damp=F
 DIIS: error= 1.28D-07 at cycle   5 NSaved=   5.
 NSaved= 5 IEnMin= 5 EnMin= -76.4089539737748     IErMin= 5 ErrMin= 1.28D-07
 ErrMax= 1.28D-07  0.00D+00 EMaxC= 1.00D-01 BMatC= 2.37D-13 BMatP= 9.02D-10
 IDIUse=1 WtCom= 1.00D+00 WtEn= 0.00D+00
 Coeff-Com:  0.353D-03-0.689D-02-0.953D-02-0.175D-01 0.103D+01
 Coeff:      0.353D-03-0.689D-02-0.953D-02-0.175D-01 0.103D+01
 Gap=     0.354 Goal=   None    Shift=    0.000
 RMSDP=5.85D-08 MaxDP=3.96D-07 DE=-6.23D-10 OVMax= 5.98D-07

 Cycle   6  Pass 1  IDiag  1:
 E= -76.4089539737753     Delta-E=       -0.000000000000 Rises=F Damp=F
 DIIS: error= 3.01D-08 at cycle   6 NSaved=   6.
 NSaved= 6 IEnMin= 6 EnMin= -76.4089539737753     IErMin= 6 ErrMin= 3.01D-08
 ErrMax= 3.01D-08  0.00D+00 EMaxC= 1.00D-01 BMatC= 1.20D-14 BMatP= 2.37D-13
 IDIUse=1 WtCom= 1.00D+00 WtEn= 0.00D+00
 Coeff-Com:  0.353D-04-0.484D-03-0.307D-03-0.401D-02-0.526D-01 0.106D+01
 Coeff:      0.353D-04-0.484D-03-0.307D-03-0.401D-02-0.526D-01 0.106D+01
 Gap=     0.354 Goal=   None    Shift=    0.000
 RMSDP=5.27D-09 MaxDP=3.64D-08 DE=-4.83D-13 OVMax= 5.01D-08

 SCF Done:  E(RB3LYP) =  -76.4089539738     A.U. after    6 cycles
            NFock=  6  Conv=0.53D-08     -V/T= 2.0078
 KE= 7.581968649487D+01 PE=-1.987563671590D+02 EE= 3.743969909641D+01
 Leave Link  502 at Fri Jun  7 15:43:05 2024, MaxMem=   134217728 cpu:               1.9 elap:               0.2
 (Enter /usr/local/g16_AVX/l701.exe)
 ... and contract with generalized density number  0.
 Compute integral first derivatives.
 Leave Link  701 at Fri Jun  7 15:43:06 2024, MaxMem=   134217728 cpu:               1.1 elap:               0.1
 (Enter /usr/local/g16_AVX/l702.exe)
 L702 exits ... SP integral derivatives will be done elsewhere.
 Leave Link  702 at Fri Jun  7 15:43:06 2024, MaxMem=   134217728 cpu:               0.1 elap:               0.0
 (Enter /usr/local/g16_AVX/l703.exe)
 Integral derivatives from FoFJK, PRISM(SPDF).
 Compute integral first derivatives, UseDBF=F ICtDFT=           0.
 Calling FoFJK, ICntrl=      2127 FMM=F ISym2X=1 I1Cent= 0 IOpClX= 0 NMat=1 NMatS=1 NMatT=0.
 FoFJK:  IHMeth= 1 ICntrl=    2127 DoSepK=F KAlg= 0 I1Cent=           0 FoldK=F
 IRaf=         0 NMat=       1 IRICut=       1 DoRegI=T DoRafI=F ISym2E= 1 IDoP0=0 IntGTp=1.
 FoFCou: FMM=F IPFlag=           0 FMFlag=      100000 FMFlg1=         800
         NFxFlg=           0 DoJE=F BraDBF=F KetDBF=F FulRan=T
         wScrn=  0.000000 ICntrl=      2127 IOpCl=  0 I1Cent=           0 NGrid=           0
         NMat0=    1 NMatS0=      1 NMatT0=    0 NMatD0=    1 NMtDS0=    0 NMtDT0=    0
 Petite list used in FoFCou.
 Leave Link  703 at Fri Jun  7 15:43:06 2024, MaxMem=   134217728 cpu:               2.0 elap:               0.2
 (Enter /usr/local/g16_AVX/l716.exe)
 Dipole        =-6.58978135D-17-2.22044605D-16-8.24398282D-01
 ***** Axes restored to original set *****
 -------------------------------------------------------------------
 Center     Atomic                   Forces (Hartrees/Bohr)
 Number     Number              X              Y              Z
 -------------------------------------------------------------------
      1        8          -0.000038940    0.000000000   -0.000028814
      2        1          -0.000007868   -0.000000000    0.000051352
      3        1           0.000046808   -0.000000000   -0.000022538
 -------------------------------------------------------------------
 Cartesian Forces:  Max     0.000051352 RMS     0.000029334
 Leave Link  716 at Fri Jun  7 15:43:06 2024, MaxMem=   134217728 cpu:               0.1 elap:               0.0
 (Enter /usr/local/g16_AVX/l103.exe)

 GradGradGradGradGradGradGradGradGradGradGradGradGradGradGradGradGradGrad
 Berny optimization.
 Using GEDIIS/GDIIS optimizer.
 FormGI is forming the generalized inverse of G from B-inverse, IUseBI=4.
 Internal  Forces:  Max     0.000051100 RMS     0.000042881
 Search for a local minimum.
 Step number   4 out of a maximum of   20
 All quantities printed in internal units (Hartrees-Bohrs-Radians)
 RMS Force = .42881D-04 SwitMx=.10000D-02 MixMth= 2
 Mixed Optimization -- En-DIIS/RFO-DIIS
 Swapping is turned off.
 Update second derivatives using D2CorX and points    1    2    3    4
 DE= -2.12D-06 DEPred=-2.09D-06 R= 1.01D+00
 TightC=F SS=  1.41D+00  RLast= 4.79D-03 DXNew= 8.1463D-01 1.4382D-02
 Trust test= 1.01D+00 RLast= 4.79D-03 DXMaxT set to 4.84D-01
 The second derivative matrix:
                          R1        R2        A1
           R1           0.63523
           R2          -0.07150   0.63523
           A1           0.03135   0.03135   0.17825
 ITU=  1  1  1  0
     Eigenvalues ---    0.17322   0.56876   0.70673
 En-DIIS/RFO-DIIS/Sim-DIIS IScMMF=       -3 using points:     4    3
 RFO step:  Lambda=-1.00158423D-08.
 NNeg= 0 NGDIIS= 2 SimSw=  2.50D-01 Rises=F DC= -2.12D-06 SmlDif=  1.00D-05
 NRisDI= 0 DoIntr=F SqrtH=F CThrHd= 10.0 CDAdj=  3.0
 RMS Error=  0.8049638811D-04 NUsed= 2 OKEnD=F EnDIS=F
 InvSVX:  RCond= 5.75D-06 Info=           0 Equed=N FErr=  9.16D-16 BErr=  7.63D-17
 DidBck=F Rises=F RFO-DIIS coefs:    1.01349   -0.01349
 Iteration  1 RMS(Cart)=  0.00008619 RMS(Int)=  0.00000000
 Iteration  2 RMS(Cart)=  0.00000000 RMS(Int)=  0.00000000
 ITry= 1 IFail=0 DXMaxC= 8.61D-05 DCOld= 1.00D+10 DXMaxT= 4.84D-01 DXLimC= 3.00D+00 Rises=F
 ClnCor:  largest displacement from symmetrization is 8.88D-16 for atom     3.
 Variable       Old X    -DE/DX   Delta X   Delta X   Delta X     New X
                                 (Linear)    (Quad)   (Total)
    R1        1.83054   0.00005  -0.00000   0.00009   0.00009   1.83063
    R2        1.83054   0.00005  -0.00000   0.00009   0.00009   1.83063
    A1        1.80899   0.00002   0.00006   0.00000   0.00007   1.80906
         Item               Value     Threshold  Converged?
 Maximum Force            0.000051     0.000450     YES
 RMS     Force            0.000043     0.000300     YES
 Maximum Displacement     0.000086     0.001800     YES
 RMS     Displacement     0.000086     0.001200     YES
 Predicted change in Energy=-5.007921D-09
 Optimization completed.
    -- Stationary point found.
                           ----------------------------
                           !   Optimized Parameters   !
                           ! (Angstroms and Degrees)  !
 --------------------------                            --------------------------
 ! Name  Definition              Value          Derivative Info.                !
 --------------------------------------------------------------------------------
 ! R1    R(1,2)                  0.9687         -DE/DX =    0.0001              !
 ! R2    R(1,3)                  0.9687         -DE/DX =    0.0001              !
 ! A1    A(2,1,3)              103.6477         -DE/DX =    0.0                 !
 --------------------------------------------------------------------------------
 Lowest energy point so far.  Saving SCF results.
 Largest change from initial coordinates is atom    3       0.063 Angstoms.
 GradGradGradGradGradGradGradGradGradGradGradGradGradGradGradGradGradGrad

 Leave Link  103 at Fri Jun  7 15:43:06 2024, MaxMem=   134217728 cpu:               0.1 elap:               0.0
 (Enter /usr/local/g16_AVX/l202.exe)
                          Input orientation:                          
 ---------------------------------------------------------------------
 Center     Atomic      Atomic             Coordinates (Angstroms)
 Number     Number       Type             X           Y           Z
 ---------------------------------------------------------------------
      1          8           0       -0.033968   -0.000000   -0.025135
      2          1           0       -0.005634   -0.000000    0.943133
      3          1           0        0.900276    0.000000   -0.281133
 ---------------------------------------------------------------------
                    Distance matrix (angstroms):
                    1          2          3
     1  O    0.000000
     2  H    0.968682   0.000000
     3  H    0.968682   1.522990   0.000000
 Stoichiometry    H2O
 Framework group  C2V[C2(O),SGV(H2)]
 Deg. of freedom     2
 Full point group                 C2V     NOp   4
 RotChk:  IX=0 Diff= 1.02D-15
 Largest Abelian subgroup         C2V     NOp   4
 Largest concise Abelian subgroup C2      NOp   2
                         Standard orientation:                         
 ---------------------------------------------------------------------
 Center     Atomic      Atomic             Coordinates (Angstroms)
 Number     Number       Type             X           Y           Z
 ---------------------------------------------------------------------
      1          8           0        0.000000    0.000000    0.119745
      2          1           0        0.000000    0.761495   -0.478980
      3          1           0       -0.000000   -0.761495   -0.478980
 ---------------------------------------------------------------------
 Rotational constants (GHZ):         787.5779670         432.3821752         279.1359018
 Leave Link  202 at Fri Jun  7 15:43:06 2024, MaxMem=   134217728 cpu:               0.1 elap:               0.0
 (Enter /usr/local/g16_AVX/l601.exe)
 Copying SCF densities to generalized density rwf, IOpCl= 0 IROHF=0.

 **********************************************************************

            Population analysis using the SCF Density.

 **********************************************************************

 Orbital symmetries:
       Occupied  (A1) (A1) (B2) (A1) (B1)
       Virtual   (A1) (B2) (B2) (A1) (B1) (A1) (B2) (A1) (A1) (A2)
                 (B1) (A1) (B2) (A1)
 The electronic state is 1-A1.
 Alpha  occ. eigenvalues --  -19.13816  -0.99790  -0.51714  -0.37223  -0.29119
 Alpha virt. eigenvalues --    0.06261   0.14813   0.77246   0.86098   0.89078
 Alpha virt. eigenvalues --    0.89510   1.06579   1.19346   1.72908   1.74637
 Alpha virt. eigenvalues --    1.77980   2.28062   2.57717   3.55192
          Condensed to atoms (all electrons):
               1          2          3
     1  O    8.289146   0.242589   0.242589
     2  H    0.242589   0.393664  -0.023414
     3  H    0.242589  -0.023414   0.393664
 Mulliken charges:
               1
     1  O   -0.774323
     2  H    0.387162
     3  H    0.387162
 Sum of Mulliken charges =  -0.00000
 Mulliken charges with hydrogens summed into heavy atoms:
               1
     1  O   -0.000000
 Electronic spatial extent (au):  <R**2>=             19.1859
 Charge=              0.0000 electrons
 Dipole moment (field-independent basis, Debye):
    X=             -0.0000    Y=              0.0000    Z=             -2.0954  Tot=              2.0954
 Quadrupole moment (field-independent basis, Debye-Ang):
   XX=             -7.2038   YY=             -4.2868   ZZ=             -5.9897
   XY=              0.0000   XZ=              0.0000   YZ=             -0.0000
 Traceless Quadrupole moment (field-independent basis, Debye-Ang):
   XX=             -1.3770   YY=              1.5399   ZZ=             -0.1629
   XY=              0.0000   XZ=              0.0000   YZ=             -0.0000
 Octapole moment (field-independent basis, Debye-Ang**2):
  XXX=              0.0000  YYY=              0.0000  ZZZ=             -1.2173  XYY=             -0.0000
  XXY=              0.0000  XXZ=             -0.3236  XZZ=             -0.0000  YZZ=              0.0000
  YYZ=             -1.2127  XYZ=             -0.0000
 Hexadecapole moment (field-independent basis, Debye-Ang**3):
 XXXX=             -5.2142 YYYY=             -6.0608 ZZZZ=             -6.2945 XXXY=             -0.0000
 XXXZ=             -0.0000 YYYX=             -0.0000 YYYZ=             -0.0000 ZZZX=             -0.0000
 ZZZY=             -0.0000 XXYY=             -2.1172 XXZZ=             -1.9680 YYZZ=             -1.7415
 XXYZ=             -0.0000 YYXZ=              0.0000 ZZXY=              0.0000
 N-N= 9.088027593977D+00 E-N=-1.987563665718D+02  KE= 7.581968649487D+01
 Symmetry A1   KE= 6.765926269096D+01
 Symmetry A2   KE= 6.025125856605D-35
 Symmetry B1   KE= 4.599928424671D+00
 Symmetry B2   KE= 3.560495379244D+00
 No NMR shielding tensors so no spin-rotation constants.
 Leave Link  601 at Fri Jun  7 15:43:06 2024, MaxMem=   134217728 cpu:               1.5 elap:               0.1
 (Enter /usr/local/g16_AVX/l9999.exe)
 1\1\GINC-ISISE0\FOpt\RB3LYP\6-31G(d)\H2O1\MARIOADN\07-Jun-2024\0\\#p B
 3LYP/6-31g* opt\\Agua\\0,1\O,-0.0339677144,0.,-0.0251347865\H,-0.00563
 36675,0.,0.9431332236\H,0.9002756623,0.,-0.2811329714\\Version=ES64L-G
 16RevB.01\State=1-A1\HF=-76.408954\RMSD=5.275e-09\RMSF=2.933e-05\Dipol
 e=0.6626982,0.,0.4903709\Quadrupole=0.3268224,-1.0237953,0.696973,0.,-
 0.6053541,0.\PG=C02V [C2(O1),SGV(H2)]\\@


 MATERIAL COPIED FROM ONE SCHOLARLY BOOK WITHOUT CREDIT COMPRISES PLAGIARISM.
 MATERIAL COPIED FROM TWO SCHOLARLY BOOKS COMPRISES AN ESSAY.
 MATERIAL COPIED FROM THREE SCHOLARLY BOOKS COMPRISES A DISSERTATION.
 MATERIAL COPIED FROM FOUR SCHOLARLY BOOKS COMPRISES A FIFTH SCHOLARLY BOOK.

                               -- C&EN, 25 FEB 1980
[...]
 FoFCou: FMM=F IPFlag=           0 FMFlag=           0 FMFlg1=           0
         NFxFlg=           0 DoJE=F BraDBF=F KetDBF=F FulRan=T
         wScrn=  0.000000 ICntrl=       600 IOpCl=  0 I1Cent=           0 NGrid=           0
         NMat0=    1 NMatS0=    190 NMatT0=    0 NMatD0=    1 NMtDS0=    0 NMtDT0=    0
 Petite list used in FoFCou.
 Closed shell SCF:
 Using DIIS extrapolation, IDIIS=  1040.
 NGot=   134217728 LenX=   134209678 LenY=   134208796
 Requested convergence on RMS density matrix=1.00D-08 within 128 cycles.
 Requested convergence on MAX density matrix=1.00D-06.
 Requested convergence on             energy=1.00D-06.
 No special actions if energy rises.

 Cycle   1  Pass 1  IDiag  1:
 E= -76.4089539737753    
 DIIS: error= 5.22D-10 at cycle   1 NSaved=   1.
 NSaved= 1 IEnMin= 1 EnMin= -76.4089539737753     IErMin= 1 ErrMin= 5.22D-10
 ErrMax= 5.22D-10  0.00D+00 EMaxC= 1.00D-01 BMatC= 5.53D-18 BMatP= 5.53D-18
 IDIUse=1 WtCom= 1.00D+00 WtEn= 0.00D+00
 Coeff-Com:  0.100D+01
 Coeff:      0.100D+01
 Gap=     0.354 Goal=   None    Shift=    0.000
 RMSDP=2.83D-10 MaxDP=2.47D-09              OVMax= 2.38D-09

 SCF Done:  E(RB3LYP) =  -76.4089539738     A.U. after    1 cycles
            NFock=  1  Conv=0.28D-09     -V/T= 2.0078
 KE= 7.581968651616D+01 PE=-1.987563665931D+02 EE= 3.743969850918D+01
 Leave Link  502 at Fri Jun  7 15:43:07 2024, MaxMem=   134217728 cpu:               1.5 elap:               0.1
 (Enter /usr/local/g16_AVX/l601.exe)
 Copying SCF densities to generalized density rwf, IOpCl= 0 IROHF=0.

 **********************************************************************

            Population analysis using the SCF Density.

 **********************************************************************

 Orbital symmetries:
       Occupied  (A1) (A1) (B2) (A1) (B1)
       Virtual   (A1) (B2) (B2) (A1) (B1) (A1) (B2) (A1) (A1) (A2)
                 (B1) (A1) (B2) (A1)
 The electronic state is 1-A1.
 Alpha  occ. eigenvalues --  -19.13816  -0.99790  -0.51714  -0.37223  -0.29119
 Alpha virt. eigenvalues --    0.06261   0.14813   0.77246   0.86098   0.89078
 Alpha virt. eigenvalues --    0.89510   1.06579   1.19346   1.72908   1.74637
 Alpha virt. eigenvalues --    1.77980   2.28062   2.57717   3.55192
     Molecular Orbital Coefficients:
                           1         2         3         4         5
                        (A1)--O   (A1)--O   (B2)--O   (A1)--O   (B1)--O
     Eigenvalues --   -19.13816  -0.99790  -0.51714  -0.37223  -0.29119
   1 1   O  1S          0.99286  -0.20950   0.00000  -0.08810   0.00000
   2        2S          0.02622   0.46921   0.00000   0.17727   0.00000
   3        2PX         0.00000   0.00000   0.00000   0.00000   0.64458
   4        2PY         0.00000   0.00000   0.51744   0.00000   0.00000
   5        2PZ        -0.00110  -0.12770   0.00000   0.55181   0.00000
   6        3S          0.01011   0.43950   0.00000   0.41045   0.00000
   7        3PX         0.00000   0.00000   0.00000   0.00000   0.50605
   8        3PY         0.00000   0.00000   0.26976   0.00000   0.00000
   9        3PZ        -0.00000  -0.06065   0.00000   0.37214   0.00000
  10        4XX        -0.00772  -0.01093   0.00000  -0.00026   0.00000
  11        4YY        -0.00777   0.01878   0.00000   0.00089   0.00000
  12        4ZZ        -0.00775   0.01607   0.00000  -0.05243   0.00000
  13        4XY         0.00000   0.00000   0.00000   0.00000   0.00000
  14        4XZ         0.00000   0.00000   0.00000   0.00000  -0.03544
  15        4YZ         0.00000   0.00000  -0.04127   0.00000   0.00000
  16 2   H  1S          0.00037   0.13915   0.23744  -0.14373   0.00000
  17        2S         -0.00103   0.00645   0.14195  -0.11427   0.00000
  18 3   H  1S          0.00037   0.13915  -0.23744  -0.14373   0.00000
  19        2S         -0.00103   0.00645  -0.14195  -0.11427   0.00000
                           6         7         8         9        10
                        (A1)--V   (B2)--V   (B2)--V   (A1)--V   (B1)--V
     Eigenvalues --     0.06261   0.14813   0.77246   0.86098   0.89078
   1 1   O  1S         -0.10064   0.00000   0.00000   0.03776   0.00000
   2        2S          0.11929   0.00000   0.00000  -0.13491   0.00000
   3        2PX         0.00000   0.00000   0.00000   0.00000  -0.95943
   4        2PY         0.00000  -0.41345  -0.17217   0.00000   0.00000
   5        2PZ        -0.28067   0.00000   0.00000   0.70838   0.00000
   6        3S          1.25786   0.00000   0.00000   0.13429   0.00000
   7        3PX         0.00000   0.00000   0.00000   0.00000   1.03862
   8        3PY         0.00000  -0.75882  -0.43062   0.00000   0.00000
   9        3PZ        -0.47748   0.00000   0.00000  -0.38397   0.00000
  10        4XX        -0.05804   0.00000   0.00000  -0.11904   0.00000
  11        4YY        -0.04509   0.00000   0.00000   0.15362   0.00000
  12        4ZZ        -0.02731   0.00000   0.00000   0.01197   0.00000
  13        4XY         0.00000   0.00000   0.00000   0.00000   0.00000
  14        4XZ         0.00000   0.00000   0.00000   0.00000  -0.01641
  15        4YZ         0.00000   0.01844  -0.19602   0.00000   0.00000
  16 2   H  1S         -0.09626   0.10735   0.84021   0.71134   0.00000
  17        2S         -0.96908   1.27786  -0.65524  -0.55174   0.00000
  18 3   H  1S         -0.09626  -0.10735  -0.84021   0.71134   0.00000
  19        2S         -0.96908  -1.27786   0.65524  -0.55174   0.00000
                          11        12        13        14        15
                        (A1)--V   (B2)--V   (A1)--V   (A1)--V   (A2)--V
     Eigenvalues --     0.89510   1.06579   1.19346   1.72908   1.74637
   1 1   O  1S          0.01055   0.00000  -0.08194   0.00743   0.00000
   2        2S         -0.83621   0.00000  -1.45748   0.09012   0.00000
   3        2PX         0.00000   0.00000   0.00000   0.00000   0.00000
   4        2PY         0.00000  -0.98925   0.00000   0.00000   0.00000
   5        2PZ        -0.55775   0.00000   0.40252  -0.00910   0.00000
   6        3S          1.41008   0.00000   3.59685  -0.25243   0.00000
   7        3PX         0.00000   0.00000   0.00000   0.00000   0.00000
   8        3PY         0.00000   1.62808   0.00000   0.00000   0.00000
   9        3PZ         0.82724   0.00000  -1.10569   0.14357   0.00000
  10        4XX        -0.32759   0.00000  -0.25044  -0.34386   0.00000
  11        4YY        -0.15693   0.00000  -0.65753  -0.59596   0.00000
  12        4ZZ        -0.27690   0.00000  -0.39329   1.00694   0.00000
  13        4XY         0.00000   0.00000   0.00000   0.00000   1.00000
  14        4XZ         0.00000   0.00000   0.00000   0.00000   0.00000
  15        4YZ         0.00000   0.01598   0.00000   0.00000   0.00000
  16 2   H  1S          0.46845   0.01946  -0.35216   0.08172   0.00000
  17        2S         -0.37387  -0.92669  -0.77322   0.04227   0.00000
  18 3   H  1S          0.46845  -0.01946  -0.35216   0.08172   0.00000
  19        2S         -0.37387   0.92669  -0.77322   0.04227   0.00000
                          16        17        18        19
                        (B1)--V   (A1)--V   (B2)--V   (A1)--V
     Eigenvalues --     1.77980   2.28062   2.57717   3.55192
   1 1   O  1S          0.00000  -0.05164   0.00000  -0.46795
   2        2S          0.00000  -0.51486   0.00000   0.28669
   3        2PX         0.00711   0.00000   0.00000   0.00000
   4        2PY         0.00000   0.00000   0.03688   0.00000
   5        2PZ         0.00000   0.06292   0.00000   0.11662
   6        3S          0.00000   1.53899   0.00000   3.68959
   7        3PX         0.03500   0.00000   0.00000   0.00000
   8        3PY         0.00000   0.00000  -0.84242   0.00000
   9        3PZ         0.00000  -0.73916   0.00000  -0.33399
  10        4XX         0.00000  -1.13119   0.00000  -1.57875
  11        4YY         0.00000   0.73617   0.00000  -1.52614
  12        4ZZ         0.00000   0.07077   0.00000  -1.54965
  13        4XY         0.00000   0.00000   0.00000   0.00000
  14        4XZ         0.99924   0.00000   0.00000   0.00000
  15        4YZ         0.00000   0.00000   1.27214   0.00000
  16 2   H  1S          0.00000  -0.81241   0.92353   0.11584
  17        2S          0.00000  -0.14145  -0.05018  -0.55456
  18 3   H  1S          0.00000  -0.81241  -0.92353   0.11584
  19        2S          0.00000  -0.14145   0.05018  -0.55456
     Density Matrix:
                           1         2         3         4         5
   1 1   O  1S          2.07485
   2        2S         -0.17576   0.50454
   3        2PX         0.00000   0.00000   0.83097
   4        2PY         0.00000  -0.00000  -0.00000   0.53550
   5        2PZ        -0.04591   0.07574  -0.00000  -0.00000   0.64161
   6        3S         -0.23640   0.55849  -0.00000  -0.00000   0.34070
   7        3PX         0.00000   0.00000   0.65237  -0.00000  -0.00000
   8        3PY         0.00000  -0.00000  -0.00000   0.27917  -0.00000
   9        3PZ        -0.04016   0.07502  -0.00000  -0.00000   0.42619
  10        4XX        -0.01071  -0.01076   0.00000  -0.00000   0.00252
  11        4YY        -0.02345   0.01753   0.00000   0.00000  -0.00380
  12        4ZZ        -0.01288  -0.00391   0.00000   0.00000  -0.06195
  13        4XY         0.00000  -0.00000   0.00000   0.00000   0.00000
  14        4XZ         0.00000   0.00000  -0.04569   0.00000   0.00000
  15        4YZ         0.00000  -0.00000   0.00000  -0.04271   0.00000
  16 2   H  1S         -0.03224   0.07964  -0.00000   0.24572  -0.19417
  17        2S          0.01538  -0.03451  -0.00000   0.14691  -0.12776
  18 3   H  1S         -0.03224   0.07964   0.00000  -0.24572  -0.19417
  19        2S          0.01538  -0.03451   0.00000  -0.14691  -0.12776
                           6         7         8         9        10
   6        3S          0.72346
   7        3PX         0.00000   0.51217
   8        3PY        -0.00000  -0.00000   0.14554
   9        3PZ         0.25217  -0.00000  -0.00000   0.28433
  10        4XX        -0.00998   0.00000  -0.00000   0.00113   0.00036
  11        4YY         0.01708   0.00000   0.00000  -0.00162  -0.00029
  12        4ZZ        -0.02906   0.00000   0.00000  -0.04097  -0.00020
  13        4XY        -0.00000   0.00000   0.00000   0.00000   0.00000
  14        4XZ         0.00000  -0.03587   0.00000   0.00000  -0.00000
  15        4YZ         0.00000   0.00000  -0.02227   0.00000   0.00000
  16 2   H  1S          0.00433  -0.00000   0.12810  -0.12386  -0.00297
  17        2S         -0.08816  -0.00000   0.07659  -0.08583  -0.00006
  18 3   H  1S          0.00433   0.00000  -0.12810  -0.12386  -0.00297
  19        2S         -0.08816   0.00000  -0.07659  -0.08583  -0.00006
                          11        12        13        14        15
  11        4YY         0.00083
  12        4ZZ         0.00063   0.00613
  13        4XY        -0.00000  -0.00000   0.00000
  14        4XZ        -0.00000  -0.00000  -0.00000   0.00251
  15        4YZ        -0.00000  -0.00000  -0.00000  -0.00000   0.00341
  16 2   H  1S          0.00497   0.01954  -0.00000   0.00000  -0.01960
  17        2S          0.00006   0.01220   0.00000   0.00000  -0.01172
  18 3   H  1S          0.00497   0.01954  -0.00000  -0.00000   0.01960
  19        2S          0.00006   0.01220  -0.00000  -0.00000   0.01172
                          16        17        18        19
  16 2   H  1S          0.19280
  17        2S          0.10205   0.06650
  18 3   H  1S         -0.03271  -0.03277   0.19280
  19        2S         -0.03277  -0.01410   0.10205   0.06650
    Full Mulliken population analysis:
                           1         2         3         4         5
   1 1   O  1S          2.07485
   2        2S         -0.04107   0.50454
   3        2PX         0.00000   0.00000   0.83097
   4        2PY         0.00000   0.00000   0.00000   0.53550
   5        2PZ         0.00000   0.00000   0.00000   0.00000   0.64161
   6        3S         -0.03954   0.42648   0.00000   0.00000   0.00000
   7        3PX         0.00000   0.00000   0.32718   0.00000   0.00000
   8        3PY         0.00000   0.00000   0.00000   0.14001   0.00000
   9        3PZ         0.00000   0.00000   0.00000   0.00000   0.21374
  10        4XX        -0.00036  -0.00589   0.00000   0.00000   0.00000
  11        4YY        -0.00079   0.00959   0.00000   0.00000   0.00000
  12        4ZZ        -0.00043  -0.00214   0.00000   0.00000   0.00000
  13        4XY        -0.00000   0.00000   0.00000   0.00000   0.00000
  14        4XZ        -0.00000  -0.00000   0.00000   0.00000   0.00000
  15        4YZ        -0.00000   0.00000   0.00000   0.00000   0.00000
  16 2   H  1S         -0.00108   0.01922   0.00000   0.05430   0.03373
  17        2S          0.00105  -0.01299   0.00000   0.01708   0.01168
  18 3   H  1S         -0.00108   0.01922   0.00000   0.05430   0.03373
  19        2S          0.00105  -0.01299   0.00000   0.01708   0.01168
                           6         7         8         9        10
   6        3S          0.72346
   7        3PX         0.00000   0.51217
   8        3PY         0.00000   0.00000   0.14554
   9        3PZ         0.00000   0.00000   0.00000   0.28433
  10        4XX        -0.00698   0.00000   0.00000   0.00000   0.00036
  11        4YY         0.01194   0.00000   0.00000   0.00000  -0.00010
  12        4ZZ        -0.02032   0.00000   0.00000   0.00000  -0.00007
  13        4XY         0.00000   0.00000   0.00000   0.00000  -0.00000
  14        4XZ        -0.00000   0.00000   0.00000   0.00000   0.00000
  15        4YZ        -0.00000   0.00000   0.00000   0.00000  -0.00000
  16 2   H  1S          0.00182   0.00000   0.05859   0.04454  -0.00048
  17        2S         -0.05983   0.00000   0.02907   0.02561  -0.00003
  18 3   H  1S          0.00182   0.00000   0.05859   0.04454  -0.00048
  19        2S         -0.05983   0.00000   0.02907   0.02561  -0.00003
                          11        12        13        14        15
  11        4YY         0.00083
  12        4ZZ         0.00021   0.00613
  13        4XY         0.00000   0.00000   0.00000
  14        4XZ         0.00000   0.00000   0.00000   0.00251
  15        4YZ         0.00000   0.00000   0.00000   0.00000   0.00341
  16 2   H  1S          0.00199   0.00606   0.00000   0.00000   0.00636
  17        2S          0.00002   0.00517  -0.00000  -0.00000   0.00071
  18 3   H  1S          0.00199   0.00606   0.00000   0.00000   0.00636
  19        2S          0.00002   0.00517   0.00000  -0.00000   0.00071
                          16        17        18        19
  16 2   H  1S          0.19280
  17        2S          0.06718   0.06650
  18 3   H  1S         -0.00164  -0.00727   0.19280
  19        2S         -0.00727  -0.00723   0.06718   0.06650
     Gross orbital populations:
                           1
   1 1   O  1S          1.99259
   2        2S          0.90396
   3        2PX         1.15814
   4        2PY         0.81826
   5        2PZ         0.94618
   6        3S          0.97903
   7        3PX         0.83934
   8        3PY         0.46087
   9        3PZ         0.63838
  10        4XX        -0.01405
  11        4YY         0.02571
  12        4ZZ         0.00584
  13        4XY         0.00000
  14        4XZ         0.00251
  15        4YZ         0.01755
  16 2   H  1S          0.47611
  17        2S          0.13673
  18 3   H  1S          0.47611
  19        2S          0.13673
          Condensed to atoms (all electrons):
               1          2          3
     1  O    8.289146   0.242589   0.242589
     2  H    0.242589   0.393664  -0.023414
     3  H    0.242589  -0.023414   0.393664
 Mulliken charges:
               1
     1  O   -0.774323
     2  H    0.387162
     3  H    0.387162
 Sum of Mulliken charges =  -0.00000
 Mulliken charges with hydrogens summed into heavy atoms:
               1
     1  O   -0.000000
 Electronic spatial extent (au):  <R**2>=             19.1859
 Charge=             -0.0000 electrons
 Dipole moment (field-independent basis, Debye):
    X=             -0.0000    Y=              0.0000    Z=             -2.0954  Tot=              2.0954
 Quadrupole moment (field-independent basis, Debye-Ang):
   XX=             -7.2038   YY=             -4.2868   ZZ=             -5.9897
   XY=              0.0000   XZ=              0.0000   YZ=             -0.0000
 Traceless Quadrupole moment (field-independent basis, Debye-Ang):
   XX=             -1.3770   YY=              1.5399   ZZ=             -0.1629
   XY=              0.0000   XZ=              0.0000   YZ=             -0.0000
 Octapole moment (field-independent basis, Debye-Ang**2):
  XXX=              0.0000  YYY=              0.0000  ZZZ=             -1.2173  XYY=             -0.0000
  XXY=             -0.0000  XXZ=             -0.3236  XZZ=             -0.0000  YZZ=              0.0000
  YYZ=             -1.2127  XYZ=             -0.0000
 Hexadecapole moment (field-independent basis, Debye-Ang**3):
 XXXX=             -5.2142 YYYY=             -6.0608 ZZZZ=             -6.2945 XXXY=             -0.0000
 XXXZ=             -0.0000 YYYX=             -0.0000 YYYZ=             -0.0000 ZZZX=             -0.0000
 ZZZY=              0.0000 XXYY=             -2.1172 XXZZ=             -1.9680 YYZZ=             -1.7415
 XXYZ=              0.0000 YYXZ=              0.0000 ZZXY=              0.0000
 N-N= 9.088027593977D+00 E-N=-1.987563666184D+02  KE= 7.581968651616D+01
 Symmetry A1   KE= 6.765926270681D+01
 Symmetry A2   KE= 1.005621742611D-34
 Symmetry B1   KE= 4.599928429529D+00
 Symmetry B2   KE= 3.560495379822D+00
 Orbital energies and kinetic energies (alpha):
                                 1                 2
   1         (A1)--O         -19.138165         29.031297
   2         (A1)--O          -0.997903          2.574092
   3         (B2)--O          -0.517142          1.780248
   4         (A1)--O          -0.372228          2.224242
   5         (B1)--O          -0.291194          2.299964
   6         (A1)--V           0.062610          1.172326
   7         (B2)--V           0.148133          1.258435
   8         (B2)--V           0.772461          2.075329
   9         (A1)--V           0.860979          3.370780
  10         (B1)--V           0.890779          3.552181
  11         (A1)--V           0.895101          2.599168
  12         (B2)--V           1.065790          3.744467
  13         (A1)--V           1.193460          2.393877
  14         (A1)--V           1.729077          2.790882
  15         (A2)--V           1.746369          2.800000
  16         (B1)--V           1.779795          2.797044
  17         (A1)--V           2.280622          3.466450
  18         (B2)--V           2.577169          3.889897
  19         (A1)--V           3.551917          9.847496
 Total kinetic energy from orbitals= 7.581968651616D+01
 No NMR shielding tensors so no spin-rotation constants.
 Leave Link  601 at Fri Jun  7 15:43:07 2024, MaxMem=   134217728 cpu:               1.1 elap:               0.1
 (Enter /usr/local/g16_AVX/l9999.exe)

 Test job not archived.
 1\1\GINC-ISISE0\SP\RB3LYP\6-31G(d)\H2O1\MARIOADN\07-Jun-2024\0\\#p B3L
 YP/6-31g* pop=full iop(3/33=1) guess=read geom=allcheck\\Agua\\0,1\O,0
 ,-0.0339677144,0.,-0.0251347865\H,0,-0.0056336675,0.,0.9431332236\H,0,
 0.9002756623,0.,-0.2811329714\\Version=ES64L-G16RevB.01\State=1-A1\HF=
 -76.408954\RMSD=2.828e-10\Dipole=0.6626982,0.,0.4903709\Quadrupole=0.3
 268224,-1.0237954,0.696973,0.,-0.6053541,0.\PG=C02V [C2(O1),SGV(H2)]\\
 @


 EDUCATION DOESN'T COST 
           ... IT PAYS!

 -- POSTMARK, UNIV. OF MISSISSIPPI, DEC 78
 Job cpu time:       0 days  0 hours  0 minutes  6.3 seconds.
 Elapsed time:       0 days  0 hours  0 minutes  0.6 seconds.
 File lengths (MBytes):  RWF=      6 Int=      0 D2E=      0 Chk=      1 Scr=      1
 Normal termination of Gaussian 16 at Fri Jun  7 15:43:07 2024.
maquina  isise0
